/*--------------------------------*- C++ -*----------------------------------*\
| =========                 |                                                 |
| \\      /  F ield         | OpenFOAM: The Open Source CFD Toolbox           |
|  \\    /   O peration     | Version:  2412                                  |
|   \\  /    A nd           | Website:  www.openfoam.com                      |
|    \\/     M anipulation  |                                                 |
\*---------------------------------------------------------------------------*/
FoamFile
{
    version     2.0;
    format      ascii;
    arch        "LSB;label=32;scalar=64";
    class       surfaceScalarField;
    location    "3";
    object      meshPhi;
}
// * * * * * * * * * * * * * * * * * * * * * * * * * * * * * * * * * * * * * //

dimensions      [0 3 -1 0 0 0 0];

oriented        oriented;

internalField   nonuniform List<scalar> 
127680
(
6.46962748111e-05
0.00299633698082
-0.00299691466562
6.52874805578e-05
0.00306648543237
-0.00306707663812
6.58925305792e-05
0.00313827615286
-0.00313888120288
6.65117475314e-05
0.0032117475989
-0.00321236681585
6.71454573969e-05
0.00328693911457
-0.00328757282444
6.77940027898e-05
0.00336389096869
-0.00336453951408
6.84577329768e-05
0.00344264437142
-0.00344330810161
6.91370005518e-05
0.00352324150423
-0.0035239207718
6.9832174739e-05
0.00360572552652
-0.00360642070071
7.05436214376e-05
0.00369014061557
-0.00369085206227
7.1271723178e-05
0.00377653198315
-0.00377726008489
7.20168724691e-05
0.00386494589216
-0.00386569104145
7.27794684738e-05
0.0039554296932
-0.0039561922892
7.35599136804e-05
0.00404803184789
-0.00404881229309
7.43586305353e-05
0.00414280195213
-0.00414360066898
7.51760481383e-05
0.00423979075274
-0.00424060817034
7.60126055672e-05
0.00433905019735
-0.00433988675478
7.68687452269e-05
0.0044406334477
-0.00444148958736
7.77449261542e-05
0.00454459490296
-0.00454547108389
7.86416206907e-05
0.00465099024291
-0.00465188693745
7.95593078313e-05
0.00475987644463
-0.00476079413177
8.0498483202e-05
0.00487131182571
-0.00487225100108
8.14596424296e-05
0.00498535606423
-0.00498631722346
8.24433044247e-05
0.00510207024197
-0.00510305390397
8.34499980769e-05
0.00522151685776
-0.00522252355141
8.44802556029e-05
0.00534375989063
-0.00534479014815
8.55346358295e-05
0.00546886479985
-0.00546991918008
8.66137009101e-05
0.00559689859479
-0.00559797765987
8.77180263035e-05
0.00572792983818
-0.00572903416358
8.88482074266e-05
0.00586202870608
-0.0058631588872
9.0004843023e-05
0.00599926701772
-0.00600042365332
9.11885617727e-05
0.00613971827218
-0.00614090199093
9.23999890296e-05
0.00628345768491
-0.00628466911217
9.36397800855e-05
0.00643056223767
-0.00643180202872
9.4908596884e-05
0.00658111071508
-0.00658237953188
9.62071180009e-05
0.00673518374458
-0.0067364822657
9.75360386436e-05
0.00689286384298
-0.00689419276362
9.88960739775e-05
0.00705423544636
-0.0070555954817
0.000100287945821
0.00721938498999
-0.00722077686183
0.00010171240593
0.00738840091488
-0.00738982537499
0.000103170212712
0.00756137374105
-0.00756283154783
0.000104662151186
0.00773839610072
-0.00773988803919
0.00010618901635
0.00791956280157
-0.00792108966673
0.000107751629813
0.00810497087326
-0.00810653348672
0.000109350819836
0.00829471960739
-0.00829631879741
0.000110987454598
0.00848891062066
-0.00849054725542
0.000112662405602
0.00868764792144
-0.00868932287245
0.000114376567636
0.00889103793966
-0.0088927521017
0.000116130862101
0.00909918960336
-0.00910094389783
0.000117926227027
0.00931221439188
-0.0093140097568
0.00011976362373
0.00953022638576
-0.00953206378246
0.000121644033483
0.00975334234992
-0.00975522275968
0.000123568470824
0.00998168176691
-0.00998360620425
0.000125537956942
0.0102153669367
-0.0102173364228
0.000127553552944
0.0104545229966
-0.0104565385926
0.000129616339894
0.0106992780378
-0.0107013408247
0.000131727418815
0.0109497631384
-0.0109518742173
0.000133887920664
0.011206112447
-0.0112082729488
0.000136098999688
0.0114684632519
-0.0114706743309
0.000138361846719
0.011736956055
-0.0117392189021
0.000140677669223
0.0120117346545
-0.012014050477
0.000143047707928
0.0122929462047
-0.0122953162434
0.000145473233503
0.0125807413097
-0.0125831668352
0.000147955546549
0.0128752741024
-0.0128777564155
0.000150495967629
0.0131767023253
-0.0131792427464
0.000153095867199
0.0134851873994
-0.0134877872989
0.000155756632347
0.0138008945446
-0.0138035553097
0.000158479693404
0.014123992836
-0.0141267158971
0.000161266503988
0.0144546553106
-0.0144574421211
0.000164118554302
0.0147930590597
-0.0147959111101
0.000167037377795
0.0151393853132
-0.0151423041367
0.000170024534525
0.0154938195516
-0.0154968067084
0.000173081624468
0.0158565515899
-0.0158596086799
0.000176210287515
0.0162277756937
-0.0162309043567
0.000179412196821
0.0166076906789
-0.0166108925882
0.000182689065457
0.0169965000019
-0.0169997768706
0.000186042649735
0.017394411899
-0.0173977654832
0.000189474745887
0.0178016394694
-0.0178050715655
0.000192987193384
0.0182184008088
-0.0182219132563
0.000196581871616
0.0186449191153
-0.0186485137935
0.000200260706538
0.0190814228161
-0.0190851016511
0.000204025667352
0.0195281456773
-0.0195319106382
0.000207878773153
0.0199853269467
-0.0199891800525
0.000211822086277
0.0204532114737
-0.0204571547868
0.000215857712309
0.0209320498323
-0.0209360854583
0.000219987826678
0.0214220984642
-0.0214262285786
0.000224214628104
0.0219236198286
-0.0219278466301
0.000228540381835
0.0224368825084
-0.0224412082622
0.000232967409661
0.0229621613867
-0.0229665884145
0.000237498079943
0.0234997377796
-0.0235042684498
0.000242134820922
0.0240498995894
-0.0240545363304
0.000246880114054
0.0246129414611
-0.0246176867543
0.000251736503996
0.0251891649285
-0.0251940213184
0.000256706585305
0.025778878597
-0.0257838486784
0.000261793025713
0.0263823982906
-0.026387484731
0.000266998542849
0.0270000472274
-0.0270052527445
0.00027232593418
0.0276321561864
-0.0276374835777
0.000277778043725
0.0282790637071
-0.0282845158166
0.000283357792032
0.0289411162423
-0.0289466959906
0.000289068172812
0.0296186683477
-0.0296243787285
0.000294912242983
0.0303120829018
-0.030317926972
0.00030089313264
0.031021731265
-0.0310277121547
0.000307014038411
0.0317479934897
-0.0317541143954
0.0003132782434
0.0324912585327
-0.0324975227377
0.000319689107222
0.0332519244485
-0.0332583353124
0.000326240783123
0.0340299151814
-0.0340364760337
0.000332919358646
0.0348242370244
-0.0348309510225
0.000339724634033
0.0356341691934
-0.0356410393435
0.000346656391652
0.0364597158617
-0.0364667451729
0.000353714140474
0.0373008632178
-0.0373080547002
0.000360897083885
0.0381575640811
-0.0381649207342
0.000368204085557
0.039029734598
-0.0390372593979
0.000375633663042
0.0399172507369
-0.0399249466531
0.000383183916171
0.0408199445373
-0.0408278144858
0.000390852526126
0.0417376000453
-0.0417456469134
0.000398636708938
0.0426699490296
-0.0426781756571
0.000406533156587
0.0436166663875
-0.0436250755366
0.000414538018509
0.0445773652119
-0.0445859595795
0.00042264684727
0.045551591612
-0.0455603738081
0.000430854548028
0.0465388191504
-0.0465477916812
0.00043915532845
0.047538442954
-0.0475476082077
0.000447542648821
0.0485497734941
-0.0485591337287
0.000456009162625
0.0495720299819
-0.0495815873049
0.000464546653983
0.0506043334261
-0.0506140897728
0.000473145981748
0.0516456992887
-0.051655656409
0.000481797000997
0.0526950297876
-0.0527051892117
0.000490488516975
0.0537511058145
-0.0537614688524
0.000499208177833
0.0548125784924
-0.0548231461737
0.000507942438664
0.0558779603494
-0.0558887334357
0.000516676454934
0.0569456161764
-0.0569565951038
0.000525394012052
0.0580137535059
-0.0580249383646
0.000534077449174
0.0590804128349
-0.0590918033436
0.000542707558764
0.0601434575483
-0.0601550530036
0.000551263525739
0.0612005636038
-0.0612123628698
0.000559722811706
0.0622492090847
-0.062261210526
0.000568061086181
0.0632866635885
-0.0632988650487
0.000576252129672
0.0643099776248
-0.0643223763746
0.000584267759711
0.0653159720677
-0.0653285647724
0.000592077743332
0.0663012277782
-0.0663140104479
0.000599649665556
0.0672620755794
-0.0672750434691
0.000606948991496
0.068194586563
-0.06820773426
0.000613938814566
0.0690945633243
-0.0691078845134
0.000620579962092
0.0699575316566
-0.0699710192321
0.000626830852518
0.0707787337936
-0.0707923797116
0.000632647428348
0.0715531225648
-0.0715669177565
0.000637983274379
0.0722753576887
-0.0722892921425
0.000642789469863
0.0729398036102
-0.0729538661682
0.000647014664393
0.0735405304411
-0.0735547087965
0.000650605202639
0.0740713168651
-0.0740855975823
0.000653505037693
0.0745256575555
-0.0745400258494
0.000655656004769
0.0748967734504
-0.0749112132914
0.000656997944411
0.0751776275428
-0.0751921215721
0.000657468728982
0.0753609452919
-0.0753754745974
0.000657004919354
0.0754392412852
-0.0754537857566
0.000655541563407
0.0754048530949
-0.0754193908667
0.000653013119212
0.0752499821702
-0.0752644901262
0.00064935351244
0.0749667444052
-0.0749811977494
0.000644496905171
0.0745472297322
-0.0745616021945
0.000638378298937
0.0739835731743
-0.0739978369668
0.000630934274187
0.0732680379576
-0.0732821637756
0.000622103951104
0.0723931119056
-0.0724070690491
0.000611829932448
0.0713516189457
-0.0713653753154
0.000600059420175
0.0701368464617
-0.070150368611
0.000586745650604
0.0687426904696
-0.068755943849
0.000571849216612
0.0671638195726
-0.0671767685293
0.000555339839162
0.0653958594441
-0.0654084675287
0.000537198204235
0.0634355988848
-0.063447829077
0.000517417825245
0.0612812189798
-0.0612930337869
0.000496007516812
0.0589325458577
-0.0589439078705
0.00047299362279
0.0563913286717
-0.0564022007168
0.000448422882141
0.0536615425345
-0.0536718883125
0.000422365092601
0.0507497171625
-0.0507595015359
0.000394916338503
0.047665290343
-0.0476744800518
0.000366202180907
0.0444209855908
-0.0444295498111
0.000336381100103
0.0410332119622
-0.0410411230206
0.000305648132322
0.0375224832946
-0.037529717513
0.000274238465149
0.0339138532296
-0.033920391705
0.000242431280311
0.0302373604054
-0.0302431900672
0.000210553438317
0.0265284775407
-0.0265335921435
0.000178983146003
0.0228285554669
-0.0228329567411
0.000148153402994
0.019185251741
-0.0191889505926
0.000118555185591
0.0156529308272
-0.0156559486581
9.07401372943e-05
0.0122930203885
-0.0122953904429
6.53226533553e-05
0.00917430532159
-0.00917607409714
4.29811733558e-05
0.00637313807484
-0.00637436679492
2.44584218082e-05
0.00397354056264
-0.00397430664808
1.05603737304e-05
0.00206716942498
-0.0020675679679
2.15365442828e-06
0.000753112940396
-0.000753258138183
0
0.000128118052879
-0.00012814275361
0
0
0
0
0
0
0
0
0
0
0
0
0
0
0
0
0
0
0
0
0
0
0
0
0
0
0
0
0
0
0
0
0.000194063880124
0.00299460415164
0.000195837277825
0.00306471203467
0.000197652191718
0.00313646123897
0.000199509593098
0.00320989019752
0.000201410483197
0.00328503822447
0.000203355876552
0.00336194557534
0.000205346810985
0.00344065343699
0.00020738435758
0.00352120395763
0.000209469604055
0.00360364028005
0.00021160367139
0.00368800654824
0.000213787697197
0.00377434795734
0.000216022859005
0.00386271073035
0.000218310344321
0.00395314220788
0.000220651383895
0.00404569080831
0.000223047231762
0.00414040610426
0.000225499171893
0.00423733881261
0.000228008511545
0.0043365408577
0.000230576597889
0.00443806536136
0.000233204808036
0.00454196669281
0.000235894552358
0.00464830049859
0.000238647264513
0.00475712373247
0.000241464418074
0.00486849467215
0.000244347526531
0.00498247295577
0.000247298136638
0.00509911963186
0.000250317818433
0.00521849717596
0.000253408201828
0.00534066950723
0.00025657093004
0.00546570207164
0.000259807702835
0.00559366182199
0.000263120256569
0.00572461728445
0.000266510357534
0.00585863860511
0.000269979828571
0.00599579754669
0.000273530525783
0.00613616757497
0.000277164351844
0.00627982385885
0.000280883246017
0.00642684334349
0.000284689204113
0.00657730475698
0.000288584265184
0.00673128868351
0.00029257051818
0.00688887758998
0.000296650091966
0.00705015587258
0.000300825175281
0.00721520990667
0.000305098003433
0.00738412808673
0.000309470868277
0.0075570008762
0.000313946101588
0.00773392086741
0.000318526108316
0.00791498279484
0.000323213339982
0.00810028364159
0.00032801031131
0.00828992263606
0.000332919580262
0.00848400135171
0.000337943784635
0.00868262371707
0.000343085608794
0.00888589611551
0.000348347813613
0.00909392739854
0.000353733213183
0.00930682899231
0.000359244691452
0.00952471490749
0.000364885205546
0.00974770183583
0.000370657765813
0.00997590920664
0.00037656547574
0.0102094592268
0.000382611492032
0.0104484769803
0.000388799051231
0.0106930904786
0.000395131469709
0.0109434307199
0.000401612143671
0.011199631773
0.000408244535848
0.0114618308597
0.00041503220211
0.0117301683888
0.000421978774834
0.0120047880818
0.000429087982858
0.0122858369967
0.00043636362155
0.012573465671
0.00044380959272
0.0128678281313
0.00045142988799
0.01316908203
0.000459228585467
0.0134773887019
0.000467209859723
0.0137929132703
0.000475377985116
0.0141158247107
0.000483737339129
0.0144462959566
0.000492292399027
0.0147845039998
0.000501047741873
0.0151306299704
0.000510008064473
0.015484859229
0.000519178156774
0.0158473814976
0.000528562931797
0.0162183909187
0.000538167422312
0.0165980861884
0.000547996764205
0.01698667066
0.000558056226418
0.0173843524367
0.000568351194312
0.0177913445015
0.000578887182977
0.0182078648201
0.000589669830581
0.0186341364677
0.000600704918323
0.0190703877284
0.000611998353802
0.0195168522419
0.000623556180999
0.0199737691195
0.00063538459358
0.0204413830611
0.000647489928245
0.0209199444976
0.000659878661399
0.0214097097311
0.000672557435767
0.0219109410543
0.000685533040434
0.0224239069038
0.000698812417491
0.0229488820096
0.000712402685334
0.0234861475117
0.000726311122018
0.0240359911527
0.000740545171917
0.0245987074112
0.000755112462359
0.025174597638
0.000770020790306
0.0257639702691
0.000785278145659
0.0263671409352
0.000800892701259
0.0269844326718
0.000816872809577
0.0276161760781
0.000833227035971
0.0282627094807
0.000849964142041
0.0289243791362
0.000867093082339
0.0296015394074
0.000884623034256
0.0302945529499
0.00090256338809
0.0310037909112
0.00092092375034
0.0317296331274
0.000939713957025
0.032472468326
0.000958944067041
0.0332326943385
0.000978596576942
0.034010235146
0.000998629726152
0.0348040976209
0.00101904292684
0.0356135613936
0.00103983553425
0.0364386306311
0.001061006057
0.0372792915456
0.0010825521137
0.0381354969623
0.00110447031389
0.0390071630871
0.00112675617255
0.0398941659646
0.00114940402467
0.0407963377221
0.00117240690965
0.0417134625315
0.00119575644521
0.0426452723306
0.00121944274339
0.0435914421829
0.00124345424576
0.0445515854196
0.00126777760034
0.045525248415
0.00129239753628
0.0465119050193
0.00131729667732
0.0475109507263
0.00134245540875
0.048521696395
0.00136785168595
0.0495433616976
0.00139346087294
0.050575068143
0.00141925553884
0.0516158317685
0.00144520527098
0.0526645554225
0.00147127645598
0.0537200207083
0.00149743208395
0.0547808795156
0.00152363149533
0.0558456452478
0.00154983017098
0.0569126836329
0.00157597948514
0.057980203238
0.00160202644533
0.0590462457038
0.00162791345766
0.060108675642
0.00165357805887
0.0611651703557
0.00167895265445
0.0622132093886
0.00170396425859
0.0632500639165
0.00172853423167
0.0642727861551
0.00175257802434
0.0652781988155
0.00177600491308
0.0662628847483
0.00179871782115
0.0672231768491
0.00182061295318
0.0681551485722
0.00184157978425
0.069054604836
0.00186150066682
0.0699170741295
0.0018802509055
0.0707378013233
0.0018976984329
0.0715117422658
0.00191370391023
0.072233559703
0.00192812059889
0.0728976214026
0.00194079460712
0.0734980007877
0.00195156477541
0.0740284802811
0.00196026320199
0.0744825581734
0.00196671530999
0.0748534594582
0.00197074049673
0.0751341511572
0.00197215278396
0.0753173628617
0.0019707614104
0.0753956136014
0.00196637203285
0.0753612452579
0.00195878762438
0.075206463946
0.00194781020385
0.0749233899557
0.00193324223937
0.0745041179011
0.00191488876403
0.0739407873112
0.00189255962733
0.073225665882
0.00186607209045
0.0723512458278
0.00183525395289
0.0713103551821
0.00179994694184
0.0700962852392
0.00176001071437
0.0687029354922
0.00171532717088
0.0671249776789
0.00166580546377
0.0653580399903
0.00161138749168
0.0633989130847
0.00155205401285
0.0612457790807
0.00148783128584
0.0588984642554
0.00141879853218
0.0563587166716
0.00134509575069
0.0536305092209
0.00126693244222
0.0507203678
0.00118459676655
0.0476377247547
0.00109846535375
0.0443952962415
0.00100901364297
0.0410094818016
0.000916826552369
0.0375007834637
0.000822609674355
0.0338942403095
0.000727200383812
0.030219873666
0.000631579146068
0.0265131357058
0.000536880426471
0.0228153533549
0.000444403085778
0.0191741566093
0.000355619853414
0.0156438784885
0.000272185429161
0.0122859111419
0.000195942775951
0.00916899967751
0.000128926948559
0.00636945238855
7.3365834727e-05
0.00397124260142
3.16770503496e-05
0.00206597394827
6.4601328938e-06
0.000752677403514
0
0.000128043960159
0
0
0
0
0
0
0
0
0
0
0
0
0
0
0
0
0
0
0
0
0
0.00032335666914
0.00299171684732
0.00032631157024
0.00306175713357
0.000329335649472
0.00313343715974
0.000332430530094
0.0032067953169
0.000335597861976
0.00328187089259
0.000338839348212
0.0033587040891
0.000342156721829
0.00343733606337
0.000345551759099
0.00351780892036
0.000349026279537
0.00360016575961
0.000352582139247
0.00368445068853
0.000356221254207
0.00377070884238
0.000359945557027
0.00385898642753
0.000363757056824
0.00394933070808
0.000367657789325
0.00404179007581
0.000371649843478
0.00413641405011
0.000375735354801
0.00423325330128
0.000379916512033
0.00433235970046
0.000384195560462
0.00443378631293
0.000388574788617
0.00453758746466
0.000393056534924
0.00464381875228
0.00039764320766
0.00475253705974
0.000402337261674
0.00486380061814
0.000407141211686
0.00497766900576
0.000412057625641
0.00509420321791
0.000417089141335
0.00521346566027
0.000422238449785
0.00533552019878
0.000427508311865
0.00546043220956
0.000432901551645
0.00558826858221
0.000438421049748
0.00571909778635
0.000444069773277
0.00585298988158
0.000449850735908
0.00599001658405
0.000455767041126
0.00613025126975
0.000461821852292
0.00627376904769
0.000468018419251
0.00642064677654
0.000474360055048
0.00657096312119
0.000480850159216
0.00672479857934
0.000487492204466
0.00688223554473
0.000494289749992
0.00704335832705
0.000501246434823
0.00720825322184
0.000508365984474
0.00737700853708
0.000515652210943
0.00754971464973
0.000523109022693
0.00772646405566
0.000530740408019
0.00790735140951
0.00053855045168
0.00809247359793
0.000546543341554
0.00828192974619
0.000554723355328
0.00847582133794
0.000563094873808
0.00867425219859
0.000571662387566
0.00887732860175
0.000580430470338
0.00908515931577
0.000589403832236
0.00929785563041
0.000598587269859
0.00951553146987
0.000607985706208
0.00973830339948
0.000617604174051
0.0099662907388
0.000627447822581
0.0101996155782
0.000637521920739
0.0104384028821
0.000647831873846
0.0106827805255
0.000658383193667
0.0109328794001
0.000669181534997
0.0111888334317
0.000680232682363
0.0114507797124
0.000691542550019
0.0117188585211
0.000703117201902
0.0119932134299
0.000714962828351
0.0122739913703
0.000727085779373
0.01256134272
0.000739492544679
0.012855421366
0.000752189773645
0.013156384801
0.000765184255355
0.0134643942202
0.000778482961841
0.0137796145638
0.000792093008169
0.0141022146643
0.000806021685702
0.014432367279
0.000820276452119
0.0147702492334
0.000834864941397
0.0151160414811
0.000849794967135
0.0154699292033
0.000865074529208
0.0158321019356
0.00088071180379
0.0162027536441
0.000896715169958
0.0165820828222
0.00091309319972
0.0169702926303
0.00092985466134
0.0173675909751
0.000947008532639
0.0177741906302
0.000964563994346
0.0181903093584
0.000982530460037
0.018616170002
0.00100091754619
0.0190520006422
0.00101973509549
0.0194980346926
0.00103899319343
0.0199545110216
0.00105870214836
0.0204216741062
0.00107887251814
0.0208997741278
0.00109951510674
0.0213890671424
0.00112064096432
0.0218898151967
0.0011422614071
0.022402286461
0.00116438802079
0.0229267553959
0.00118703264386
0.0234635028886
0.00121020741085
0.0240128163857
0.00123392473237
0.0245749900897
0.00125819730842
0.025150325062
0.00128303814173
0.0257391294358
0.00130846053103
0.0263417185459
0.00133447809442
0.0269584151084
0.00136110476598
0.0275895494065
0.00138835480578
0.0282354594409
0.00141624280652
0.0288964911354
0.00144478370352
0.0295729985104
0.00147399278469
0.0302653438687
0.00150388569387
0.030973898002
0.00153447843412
0.0316990403872
0.00156578739439
0.0324411593657
0.00159782934281
0.0332006523901
0.0016305751067
0.0339774435179
0.00166395510749
0.0347705405753
0.00169796836369
0.0355792238889
0.00173261379464
0.0364034976202
0.00176788893677
0.0372433479929
0.00180378980271
0.0380987278827
0.00184031074378
0.0389695535748
0.00187744429868
0.0398557012292
0.00191518101796
0.0407570031419
0.0019535092969
0.0416732436906
0.00199241519621
0.0426041550608
0.00203188221052
0.0435494126498
0.00207189109322
0.0445086301446
0.00211241960804
0.0454813543614
0.00215344228653
0.046467059665
0.00219493019065
0.047465142122
0.00223685063082
0.0484749132588
0.00227916687859
0.0494955935064
0.00232183788353
0.0505263052105
0.00236481794159
0.0515660653647
0.00240805637731
0.0526137778699
0.00245149719403
0.0536682255039
0.00249507869927
0.0547280614702
0.00253873316365
0.055791800586
0.00258238640432
0.0568578101637
0.00262595738766
0.0579243005021
0.00266935782962
0.0589893151219
0.00271249176337
0.0600507206952
0.00275525510244
0.0611061967727
0.0027975352265
0.0621532253151
0.00283921052049
0.0631890801399
0.00288014995333
0.064210816301
0.00292021264289
0.0652152595746
0.0029592474628
0.0661989960827
0.00299709253966
0.0671583623352
0.00303357505758
0.068089435471
0.00306851077562
0.0689880244912
0.00310170374221
0.0698496622192
0.00313294605945
0.0706695981219
0.00316201779632
0.0714427928281
0.00318868672397
0.0721639143098
0.00321270840549
0.0728273357497
0.00323382631064
0.0734271362627
0.00325177203638
0.0739571042652
0.00326626563295
0.074410744387
0.00327701634891
0.0747812880588
0.0032837233158
0.0750617090915
0.00328607650702
0.075244744163
0.00328375817052
0.0753229194601
0.00327644436624
0.0752885842649
0.00326380697547
0.0751339521725
0.00324551598342
0.0748511511047
0.003221242296
0.0744322833037
0.00319066101866
0.0738694958808
0.00315345531397
0.0731550639482
0.00310932076611
0.0722814869645
0.0030579704029
0.0712415999206
0.00299914054307
0.0700287005418
0.00293259727169
0.0686366942253
0.00285814383577
0.0670602578317
0.00277562888078
0.0652950237573
0.00268495557726
0.063337785793
0.00258609183976
0.0611867277852
0.00247908150736
0.0588416761486
0.00236405646929
0.0563043773274
0.00224125006685
0.0535788003297
0.00211101136783
0.0506714647682
0.00197382050453
0.0475917939222
0.00183030505366
0.044352491655
0.00168125716765
0.0409699417179
0.00152765153409
0.037464626346
0.00137066375042
0.0338615605231
0.00121168913693
0.0301907365899
0.00105236136863
0.0264875725518
0.000894570734318
0.0227933554901
0.000740481449455
0.0191556694733
0.000592547421586
0.01562879514
0.000453525787692
0.0122740654431
0.000326487360381
0.00916015920778
0.000214823021158
0.00636331115728
0.000122244963915
0.00396741365153
5.27815143999e-05
0.00206398199923
1.07641208045e-05
0.000751951694884
0
0.000127920504082
0
0
0
0
0
0
0
0
0
0
0
0
0
0
0
0
0
0
0
0
0
0.000452524803136
0.00298767617588
0.000456660070024
0.00305762186669
0.00046089215037
0.00312920507939
0.000465223306095
0.00320246416117
0.000469655865642
0.00327743833304
0.000474192190723
0.00335416776402
0.000478834722879
0.00343269353122
0.000483585943569
0.00351305769967
0.000488448394124
0.00359530330905
0.000493424685731
0.00367947439692
0.000498517472818
0.0037656160553
0.000503729496299
0.00385377440405
0.000509063537003
0.00394399666738
0.000514522455593
0.00403633115722
0.000520109172605
0.0041308273331
0.000525826685082
0.00422753578881
0.000531678053268
0.00432650833228
0.000537666410584
0.00442779795561
0.000543794960309
0.00453145891493
0.000550066988877
0.00463754672371
0.000556485855902
0.00474611819271
0.000563055000833
0.00485723147321
0.00056977793297
0.00497094607362
0.000576658258078
0.0050873228928
0.000583699665081
0.00520642425326
0.000590905919408
0.00532831394445
0.000598280882954
0.00545305724602
0.000605828504098
0.00558072096107
0.000613552827683
0.00571137346276
0.000621457985038
0.00584508472423
0.00062954821726
0.00598192635183
0.000637827848608
0.0061219716384
0.000646301319759
0.00626529557653
0.000654973167857
0.00641197492844
0.000663848036488
0.00656208825255
0.000672930675684
0.00671571594015
0.000682225951895
0.00687294026852
0.00069173884467
0.00703384543428
0.000701474449979
0.00719851761653
0.000711437976889
0.00736704501017
0.000721634764194
0.00753951786243
0.000732070273763
0.00771602854609
0.000742750090539
0.00789667159273
0.0007536799425
0.00808154374597
0.000764865670719
0.00827074401797
0.000776313275935
0.00846437373272
0.000788028888613
0.00866253658591
0.000800018772271
0.00886533871809
0.000812289363402
0.00907288872464
0.000824847221569
0.00928529777224
0.000837699082635
0.0095026796088
0.000850851815514
0.0097251506666
0.000864312478726
0.00995283007559
0.000878088270493
0.0101858397865
0.000892186578644
0.010424304574
0.00090661494069
0.0106683521634
0.000921381097051
0.0109181132437
0.000936492947812
0.0111737215809
0.000951958585985
0.0114353140742
0.000967786300839
0.0117030308063
0.000983984561264
0.0119770151694
0.00100056204571
0.0122574138858
0.00101752763554
0.0125443771301
0.00103489041169
0.0128380585898
0.00105265967131
0.0131386155414
0.00107084494107
0.0134462089504
0.00108945594723
0.0137610035577
0.00110850266551
0.014083167946
0.0011279952945
0.01441287465
0.00114794427231
0.0147503002556
0.00116836028648
0.0150956254669
0.0011892542641
0.0154490352257
0.00121063740165
0.015810718798
0.00123252114844
0.0161808698973
0.0012549172232
0.0165596867475
0.00127783762077
0.0169473722327
0.00130129461869
0.0173441339772
0.00132530077728
0.0177501844716
0.00134986895621
0.0181657411795
0.00137501230788
0.0185910266503
0.00140074429734
0.0190262686528
0.00142707871566
0.0194717002742
0.00145402965327
0.019927560084
0.0014816115565
0.0203940922029
0.0015098391877
0.0208715464966
0.00153872766514
0.021360178665
0.00156829246634
0.0218602503955
0.00159854941807
0.0223720295093
0.00162951472964
0.0228957900844
0.00166120498292
0.0234318126354
0.00169363714563
0.023980384223
0.00172682859462
0.0245417986407
0.00176079709927
0.0251163565573
0.00179556085471
0.0257043656804
0.00183113847854
0.0263061409221
0.00186754902409
0.0269220045628
0.00190481199377
0.0275522864368
0.00194294733903
0.0281973240956
0.001981975487
0.0288574629875
0.00202191734046
0.029533056657
0.00206279428787
0.0302244669213
0.00210462821992
0.03093206407
0.00214744154627
0.0316562270608
0.00219125719211
0.0323973437199
0.00223609861821
0.033155810964
0.00228192501381
0.0339315529373
0.002328638996
0.0347235788259
0.00237623920024
0.0355311699118
0.00242472410416
0.0363543303676
0.00247409026362
0.0371930464195
0.00252433209754
0.0380472710182
0.00257544170212
0.038916920558
0.00262740863053
0.0398018713667
0.00268021967043
0.0407019559592
0.00273385857887
0.0416169590159
0.00278830583022
0.0425466130844
0.00284353834968
0.0434905939873
0.00289952918873
0.0444485159467
0.00295624723112
0.0454199263813
0.00301365683955
0.0464043003737
0.00307171751485
0.0474010347985
0.0031303834982
0.0484094421257
0.00318960340775
0.0494287438187
0.00324931978133
0.0504580634267
0.00330946866944
0.0514964192556
0.00336997913762
0.0525427167074
0.00343077282513
0.0535957401831
0.00349176341398
0.0546541447108
0.00355285610002
0.055716447124
0.00361394707329
0.0567810169267
0.00367492293164
0.0578460668465
0.00373566012907
0.0589096430318
0.00379602435244
0.0599696150534
0.0038558699474
0.0610236655859
0.00391503929817
0.0620692799912
0.00397336221378
0.0631037357708
0.00403065532226
0.0641240919544
0.00408672146359
0.0651271786095
0.00414134908943
0.066109586488
0.00419431179781
0.0670676569723
0.00424536767529
0.0679974725548
0.00429425879103
0.0688948479788
0.00434071100937
0.06975532195
0.0043844334384
0.0705741504053
0.0044251181525
0.0713463008575
0.00446244025129
0.0720664483567
0.00449605765203
0.072728973761
0.00452561132668
0.073327964172
0.0045507256125
0.0738572164131
0.00457100884744
0.0743102438259
0.00458605407125
0.0746802870312
0.00459544018028
0.0749603293258
0.00459873336227
0.0751431171975
0.00459548896055
0.0752211868823
0.00458525360013
0.0751868980768
0.00456756809397
0.0750324748095
0.00454197053936
0.0747500557441
0.00450800046748
0.074331753653
0.00446520321473
0.0737697263303
0.00441313532687
0.0730562593333
0.00435137076356
0.0721838622282
0.00427950796783
0.0711453796708
0.00419717792753
0.0699341184367
0.00410405325967
0.0685439922124
0.00399985864598
0.0669696849704
0.00388438223126
0.065206835062
0.00375748854184
0.0632522405863
0.00361913269867
0.0611040878199
0.00346937597664
0.058762203469
0.00330840301587
0.0562283315704
0.00313654035311
0.0535064357791
0.0029542764565
0.0506030269367
0.00276228330936
0.0475275155383
0.0025614391424
0.0442925883393
0.00235285255938
0.0409146069372
0.00213788756593
0.0374140259156
0.00191818940711
0.0338158264603
0.00169571075986
0.0301499604084
0.00147273788659
0.0264517979321
0.00125191616684
0.0227625703552
0.00103627434183
0.0191297974605
0.000829246551019
0.0156076865954
0.00063469130473
0.0122574878572
0.000456906077424
0.00914778732243
0.000300636274374
0.00635471674929
0.00017107696635
0.00396205518711
7.38656305813e-05
0.00206119434623
1.50639591543e-05
0.000750936094671
0
0.000127747732218
0
0
0
0
0
0
0
0
0
0
0
0
0
0
0
0
0
0
0
0
0
0.000581518473325
0.0029824837017
0.000586832512678
0.00305230782733
0.000592270960901
0.00312376663117
0.000597836731878
0.0031968983902
0.000603532799368
0.00327174226555
0.000609362226939