/*--------------------------------*- C++ -*----------------------------------*\
| =========                 |                                                 |
| \\      /  F ield         | OpenFOAM: The Open Source CFD Toolbox           |
|  \\    /   O peration     | Version:  2412                                  |
|   \\  /    A nd           | Website:  www.openfoam.com                      |
|    \\/     M anipulation  |                                                 |
\*---------------------------------------------------------------------------*/
FoamFile
{
    version     2.0;
    format      ascii;
    arch        "LSB;label=32;scalar=64";
    class       volScalarField;
    location    "3";
    object      p;
}
// * * * * * * * * * * * * * * * * * * * * * * * * * * * * * * * * * * * * * //

dimensions      [1 -1 -2 0 0 0 0];

internalField   nonuniform List<scalar> 
64000
(
-0.672858407432
-0.669105858601
-0.665386660558
-0.661717759625
-0.658114129101
-0.654550510618
-0.651055471646
-0.647606026104
-0.644220843866
-0.640888182551
-0.637616626055
-0.634401886881
-0.631247230047
-0.628151567594
-0.625116065915
-0.622140643385
-0.619225749369
-0.616371498203
-0.613578076008
-0.610845558562
-0.608173991904
-0.605563360342
-0.603013601196
-0.600524601041
-0.598096199329
-0.595728189335
-0.593420320097
-0.591172298211
-0.588983789815
-0.586854422496
-0.58478378728
-0.582771440768
-0.580816907222
-0.578919680587
-0.577079226653
-0.575294985192
-0.573566372054
-0.571892781236
-0.570273586969
-0.568708145797
-0.567195798599
-0.565735872575
-0.564327683228
-0.562970536218
-0.561663729218
-0.560406553683
-0.559198296573
-0.558038242043
-0.556925673089
-0.55585987307
-0.554840127196
-0.553865723957
-0.552935956401
-0.552050123456
-0.551207531143
-0.550407493706
-0.549649334674
-0.548932387902
-0.54825599851
-0.547619523763
-0.547022333919
-0.546463812983
-0.545943359437
-0.545460386903
-0.545014324723
-0.544604618479
-0.544230730546
-0.543892140565
-0.543588345862
-0.543318861805
-0.543083222173
-0.542880979475
-0.542711705208
-0.542574990084
-0.542470444244
-0.542397697454
-0.542356399274
-0.542346219191
-0.542366846732
-0.542417991577
-0.542499383666
-0.542610773281
-0.542751931089
-0.542922648173
-0.54312273606
-0.543352026751
-0.543610372764
-0.543897647119
-0.54421374335
-0.544558575515
-0.544932078202
-0.545334206539
-0.54576493618
-0.546224263305
-0.546712204605
-0.547228797307
-0.54777409917
-0.548348188502
-0.548951164158
-0.549583145557
-0.550244272715
-0.550934706241
-0.55165462734
-0.552404238335
-0.553183760628
-0.553986341186
-0.554792533183
-0.555588444248
-0.556371320524
-0.55713845683
-0.557887015306
-0.558614018057
-0.559316341394
-0.559990709425
-0.560633688514
-0.561241680008
-0.561810915921
-0.562337450341
-0.562817156318
-0.563245717236
-0.563618624699
-0.563931169216
-0.564178439636
-0.564355314167
-0.564456460791
-0.564476331064
-0.564409158168
-0.564248956942
-0.563989519383
-0.563624420117
-0.563147013219
-0.562550439406
-0.561827627988
-0.560971306358
-0.559974006451
-0.558828078454
-0.557525703393
-0.556058910482
-0.554419598725
-0.552599561526
-0.550590514103
-0.548384111311
-0.545972020092
-0.543345942382
-0.540497656255
-0.537419081819
-0.534102343071
-0.530539840461
-0.526724325725
-0.522648991664
-0.518307569631
-0.513694436626
-0.508804734466
-0.503634500057
-0.498180808528
-0.492441927721
-0.486417488122
-0.480108665301
-0.473518376892
-0.466651495165
-0.45951507425
-0.452118593764
-0.444474215312
-0.436597052944
-0.428505457615
-0.420221314286
-0.411770349397
-0.403182447539
-0.394491973204
-0.385738095477
-0.376965110905
-0.368222760237
-0.359566532942
-0.351057952357
-0.342764832769
-0.334761498874
-0.327128957135
-0.319955006032
-0.313334272325
-0.307368158318
-0.302164683033
-0.297838197106
-0.294508952234
-0.292302502903
-0.291348918387
-0.291781782792
-0.293736955749
-0.297351070335
-0.302739499687
-0.309392758145
-0.316483497386
-0.323740632764
-0.331168035881
-0.338769669579
-0.346549590239
-0.354511949764
-0.362660997929
-0.371001084523
-0.379536661777
-0.388272278838
-0.690248724079
-0.686693596944
-0.68318170524
-0.679720678017
-0.676331904267
-0.672986347759
-0.669714736872
-0.666493271493
-0.66334100587
-0.660246311657
-0.657217766975
-0.654251319078
-0.651350244529
-0.648513641141
-0.645742750533
-0.643037637649
-0.640398863373
-0.637826676653
-0.635321391614
-0.632883220003
-0.630512345155
-0.628208893026
-0.625972945804
-0.623804538769
-0.621703663756
-0.619670270252
-0.617704267483
-0.615805526221
-0.613973880883
-0.612209131584
-0.610511046213
-0.608879362667
-0.607313790998
-0.605814015589
-0.604379697404
-0.603010476243
-0.601705972945
-0.600465791593
-0.599289521691
-0.598176740378
-0.59712701457
-0.596139903065
-0.595214958646
-0.594351730105
-0.593549764167
-0.592808607458
-0.592127808324
-0.591506918681
-0.590945495803
-0.590443104008
-0.589999316261
-0.589613715774
-0.589285897482
-0.589015469464
-0.588802054371
-0.588645290691
-0.588544833993
-0.588500358158
-0.588511556507
-0.588578142841
-0.58869985249
-0.588876443292
-0.589107696483
-0.589393417544
-0.589733437026
-0.590127611301
-0.590575823296
-0.591077983203
-0.591634029123
-0.592243927671
-0.592907674574
-0.593625295225
-0.594396845206
-0.595222410747
-0.596102109227
-0.597036089651
-0.598024533065
-0.599067652967
-0.600165695716
-0.601318940962
-0.602527702048
-0.60379232639
-0.605113195819
-0.606490726941
-0.607925371522
-0.609417616862
-0.610967986146
-0.612577038809
-0.614245370902
-0.615973615482
-0.617762443016
-0.61961256175
-0.621524718101
-0.623499697071
-0.625538322664
-0.627641458321
-0.629810007362
-0.632044913442
-0.63434716103
-0.636717775888
-0.639157825566
-0.6416684199
-0.644250711589
-0.646905897096
-0.649635215123
-0.652432854701
-0.6552804363
-0.658165158812
-0.661085383807
-0.66403954786
-0.667025981594
-0.670042902776
-0.673088411551
-0.676160484478
-0.679256969534
-0.682375579785
-0.685513889572
-0.688669326825
-0.69183917033
-0.695020542689
-0.698210407146
-0.70140556194
-0.704602636939
-0.707798089955
-0.710988202884
-0.71416908049
-0.717336647464
-0.720486649236
-0.723614650178
-0.726716036463
-0.729786018726
-0.732819635368
-0.735811759614
-0.73875710645
-0.741650243601
-0.744485603404
-0.747257498365
-0.749960138747
-0.752587655356
-0.755134124686
-0.757593597968
-0.759960132704
-0.762227837998
-0.764390917057
-0.766443714915
-0.768380776637
-0.770196912592
-0.771887269837
-0.77344741345
-0.774873415087
-0.776161951926
-0.777310415673
-0.778317032569
-0.779180997061
-0.779902615529
-0.780483463303
-0.780926555428
-0.781236530794
-0.781419851828
-0.781485017552
-0.781442792846
-0.781306456847
-0.781092059919
-0.780818695523
-0.780508786785
-0.780188386137
-0.779887484852
-0.77964033225
-0.77948575967
-0.779467507442
-0.77963455014
-0.780041415006
-0.780748490234
-0.781822312993
-0.783335829315
-0.785368616548
-0.788007057247
-0.791344451988
-0.795481057112
-0.800524035546
-0.8065873023
-0.813791241874
-0.822262281303
-0.83213229409
-0.843537814592
-0.85661904492
-0.871518618904
-0.888380102404
-0.907325963429
-0.927853978085
-0.949144228766
-0.970933235491
-0.993232652506
-1.0160544074
-1.03941070762
-1.06331404701
-1.08777721253
-1.112813291
-1.13843567588
-1.16465807864
-0.707460209148
-0.704105448584
-0.700803734124
-0.697553429504
-0.694382378014
-0.691257691068
-0.688212342355
-0.685221633714
-0.682305065622
-0.679451081536
-0.67666827871
-0.673952820701
-0.671308006626
-0.66873311083
-0.666229454277
-0.66379724448
-0.661437154528
-0.659149566235
-0.656934921262
-0.654793566232
-0.652725821007
-0.650731952372
-0.64881218661
-0.646966706919
-0.645195656816
-0.643499141353
-0.641877229229
-0.640329954791
-0.638857320196
-0.637459297526
-0.636135831008
-0.634886839316
-0.633712217874
-0.632611841077
-0.631585564697
-0.630633228222
-0.629754657178
-0.628949665441
-0.628218057544
-0.627559630993
-0.62697417856
-0.626461490489
-0.626021356741
-0.625653569125
-0.625357923368
-0.625134221194
-0.624982272341
-0.6249018965
-0.624892925262
-0.624955203941
-0.625088593349
-0.625292971523
-0.62556823539
-0.625914302325
-0.626331111739
-0.626818626547
-0.62737683456
-0.628005749869
-0.628705414201
-0.629475898134
-0.630317302312
-0.631229758626
-0.632213431295
-0.633268517925
-0.634395250541
-0.635593896562
-0.636864759725
-0.638208181038
-0.639624539653
-0.641114253715
-0.64267778115
-0.644315620484
-0.646028311619
-0.647816436589
-0.649680620279
-0.651621531153
-0.653639881957
-0.655736430423
-0.657911979985
-0.66016738048
-0.66250352885
-0.664921369806
-0.667421896507
-0.670006151263
-0.672675226238
-0.675430264147
-0.67827245896
-0.681203056617
-0.684223355782
-0.687334708608
-0.690538521473
-0.693836255773
-0.697229428713
-0.700719614128
-0.704308443318
-0.707997605894
-0.711788850674
-0.715683986604
-0.719684883669
-0.72379347384
-0.728011752071
-0.732341777282
-0.736785673485
-0.741345631073
-0.746023905803
-0.750815728488
-0.755703786577
-0.760676369694
-0.765732954653
-0.770873119441
-0.776096362806
-0.781402097752
-0.786789647983
-0.792258242018
-0.797807009023
-0.803434973382
-0.809141050884
-0.814924043192
-0.820782634037
-0.826715384804
-0.832720729856
-0.83879697419
-0.844942288523
-0.85115470891
-0.857432131056
-0.863772311948
-0.870172867298
-0.876631271779
-0.883144861391
-0.88971083348
-0.896326253694
-0.902988058083
-0.909693061809
-0.916437967029
-0.923219375955
-0.93003380241
-0.936877689234
-0.943747426289
-0.950639374688
-0.957549894048
-0.964475372644
-0.971412261205
-0.97835711462
-0.985306638804
-0.992257741929
-0.999207592471
-1.00615368487
-1.01309391262
-1.0200266521
-1.02695085233
-1.03386613533
-1.04077290545
-1.04767247082
-1.05456718152
-1.06146057416
-1.06835752954
-1.07526444537
-1.08218942268
-1.08914246691
-1.09613570259
-1.10318359975
-1.11030323583
-1.11751454906
-1.12484061022
-1.13230791225
-1.13994667247
-1.1477911446
-1.15587994007
-1.16425635498
-1.17296869873
-1.18207062121
-1.19162143281
-1.20168641659
-1.21233711996
-1.22365161857
-1.23571473905
-1.24861823769
-1.26246091639
-1.27734865687
-1.2933943786
-1.31071788883
-1.32944560331
-1.34971012206
-1.37164963437
-1.3954071316
-1.42112943065
-1.44896593629
-1.47906714384
-1.51156261266
-1.54595737526
-1.58143894118
-1.61775143084
-1.65491427641
-1.69294736561
-1.73187105229
-1.77170616747
-1.81247403031
-1.85419645963
-1.89689578532
-1.94059487536
-0.724486599899
-0.721335014733
-0.718246283939
-0.71520949378
-0.712258909637
-0.709357848195
-0.706541472592
-0.703784225806
-0.701106026889
-0.69849540508
-0.695960969516
-0.693499099806
-0.691113118242
-0.688802472507
-0.686568563578
-0.684411739354
-0.682332784846
-0.680332213349
-0.678410593313
-0.676568405249
-0.674806104718
-0.673124098442
-0.671522756016
-0.670002407746
-0.668563348018
-0.667205836688
-0.665930101254
-0.664736338955
-0.663624719022
-0.662595384923
-0.661648456634
-0.660784033073
-0.660002194489
-0.659303004822
-0.658686514178
-0.658152761326
-0.657701776082
-0.65733358176
-0.657048197596
-0.656845641172
-0.656725930834
-0.656689088044
-0.656735139702
-0.656864120444
-0.65707607485
-0.657371059613
-0.657749145732
-0.658210420583
-0.658754989973
-0.659382980189
-0.66009453985
-0.660889841811
-0.661769084971
-0.662732496035
-0.663780331201
-0.664912877847
-0.666130456067
-0.667433420261
-0.668822160635
-0.670297104623
-0.671858718264
-0.673507507578
-0.675244019887
-0.677068845038
-0.678982616613
-0.68098601315
-0.683079759329
-0.685264627081
-0.687541436711
-0.689911057953
-0.692374411018
-0.694932467652
-0.697586252166
-0.700336842451
-0.703185370934
-0.706133025566
-0.709181050825
-0.712330748715
-0.715583479748
-0.718940663933
-0.722403781759
-0.725974375184
-0.729654048657
-0.733444470106
-0.737347371989
-0.741364552302
-0.745497875648
-0.749749274333
-0.754120749459
-0.758614372047
-0.763232284161
-0.767976700085
-0.77284990755
-0.777854268923
-0.782992222454
-0.788266283569
-0.793679046218
-0.799233184222
-0.804931452635
-0.810776689175
-0.816771815713
-0.822919839729
-0.829223855986
-0.835687048222
-0.84231268862
-0.849097049099
-0.8560238833
-0.863082570661
-0.870273702625
-0.877597997852
-0.885056122259
-0.892648683611
-0.90037622785
-0.908239234762
-0.916238113654
-0.924373199421
-0.932644748296
-0.941052934459
-0.949597845644
-0.958279480378
-0.967097743791
-0.976052445775
-0.985143297529
-0.994369910717
-1.00373179435
-1.01322835617
-1.02285890124
-1.0326226328
-1.0425186557
-1.0525459781
-1.06270351793
-1.0729901083
-1.08340450379
-1.09394539224
-1.10461140807
-1.11540114593
-1.12631317686
-1.13734606765
-1.14849840738
-1.15976883719
-1.1711560809
-1.18265897929
-1.19427653087
-1.2060079426
-1.21785268349
-1.22981054322
-1.2418816972
-1.25406678199
-1.26636698278
-1.27878412356
-1.29132076948
-1.30398033621
-1.31676720798
-1.32968688728
-1.3427461394
-1.35595314648
-1.36931768667
-1.38285131976
-1.39656759114
-1.41048225146
-1.42461345942
-1.43898209368
-1.45361198071
-1.46853016433
-1.48376720242
-1.49935747341
-1.5153394887
-1.53175621768
-1.54865541746
-1.5660899626
-1.58411817517
-1.60280414187
-1.62221803416
-1.64243640371
-1.66354245239
-1.68562625007
-1.70878492196
-1.73312277316
-1.7587513018
-1.78578917592
-1.81436208985
-1.84460248494
-1.87664913108
-1.91064653206
-1.94674411604
-1.98509531215
-2.02585629195
-2.06918447407
-2.11521650235
-2.16346465902
-2.21312387318
-2.26394585817
-2.31595781675
-2.36918758907
-2.42366366762
-2.47941521248
-2.5364720669
-2.59486477325
-2.65462458921
-2.71578353059
-0.741321888997
-0.738376185158
-0.735503158254
-0.732682590253
-0.729955120943
-0.727280352947
-0.724695560913
-0.72217438479
-0.719737125834
-0.717372416036
-0.715088868644
-0.71288307906
-0.710758393261
-0.708714429227
-0.706752668529
-0.704873597275
-0.703078112044
-0.701366856252
-0.699740524317
-0.698199729582
-0.696745062425
-0.695377068588
-0.694096260076
-0.692903113461
-0.69179807321
-0.690781553181
-0.689853938897
-0.68901558974
-0.688266841309
-0.687608007756
-0.687039384182
-0.68656124913
-0.68617386711
-0.68587749105
-0.685672364864
-0.685558726079
-0.685536808341
-0.685606843957
-0.685769066467
-0.686023713154
-0.686371027588
-0.686811262097
-0.687344680215
-0.687971559128
-0.688692191997
-0.68950689026
-0.690415985951
-0.691419833932
-0.692518814079
-0.693713333438
-0.695003828311
-0.696390766234
-0.697874647985
-0.699456009464
-0.701135423583
-0.702913502075
-0.704790897288
-0.70676830385
-0.70884646037
-0.711026151076
-0.713308207359
-0.715693509336
-0.718182987359
-0.720777623441
-0.723478452682
-0.726286564709
-0.729203105065
-0.732229276551
-0.73536634052
-0.738615618201
-0.741978492006
-0.745456406811
-0.74905087123
-0.75276345884
-0.756595809457
-0.76054963037
-0.764626697633
-0.768828857319
-0.773158026794
-0.777616195992
-0.782205428699
-0.786927863861
-0.791785716896
-0.796781281042
-0.801916928676
-0.807195112703
-0.812618367975
-0.818189312731
-0.82391065006
-0.829785169349
-0.835815747825
-0.842005352147
-0.848357039981
-0.854873961608
-0.861559361583
-0.868416580488
-0.875449056693
-0.882660328139
-0.890054034166
-0.897633917437
-0.905403825885
-0.913367714657
-0.921529648337
-0.929893803021
-0.93846446632
-0.947238950188
-0.956202073165
-0.965344303324
-0.974667345609
-0.9841730581
-0.993863272597
-1.00373979054
-1.01380437841
-1.02405876609
-1.0345046416
-1.04514364869
-1.05597738285
-1.06700738895
-1.07823515721
-1.0896621214
-1.10128965576
-1.1131190733
-1.12515162388
-1.13738849292
-1.1498308009
-1.16247960397
-1.17533589456
-1.18840060291
-1.20167459962
-1.21515870149
-1.2288536769
-1.24276025365
-1.2568791234
-1.27121095602
-1.28575641543
-1.30051617603
-1.3154909352
-1.3306814323
-1.3460884803
-1.36171299911
-1.37755604747
-1.39361885283
-1.40990285195
-1.4264097488
-1.44314157064
-1.46010072732
-1.4772900733
-1.49471298104
-1.5123734404
-1.53027614765
-1.54842660745
-1.56683124702
-1.58549750785
-1.60443404609
-1.62365085925
-1.64315942332
-1.66297289481
-1.68310628629
-1.7035766775
-1.72440346581
-1.74560844395
-1.76721631215
-1.78925478385
-1.81175486607
-1.8347511736
-1.85828224244
-1.88239083431
-1.90712427074
-1.93253476556
-1.95867975271
-1.98562222576
-2.01343103497
-2.04218123133
-2.0719543603
-2.1028387512
-2.13492970353
-2.16832970066
-2.20314856914
-2.2395034004
-2.27751859799
-2.31732573838
-2.35906327823
-2.40287615425
-2.44891520041
-2.49733622149
-2.54829927206
-2.60196728471
-2.65850459213
-2.71805491277
-2.78013776872
-2.84395549822
-2.90926739726
-2.97610842868
-3.04451437434
-3.11452185439
-3.18616834676
-3.25949220726
-3.33453269014
-3.41132996868
-3.48992519436
-0.757960340368
-0.755223127322
-0.752568425625
-0.749966696846
-0.747464890157
-0.745018987244
-0.742668287019
-0.74038568854
-0.738191835447
-0.736075481058
-0.734045234033
-0.732097905859
-0.73023686629
-0.728461900768
-0.726774571864
-0.725175501828
-0.723665698361
-0.722245933605
-0.720917027149
-0.719679724091
-0.718534748649
-0.717482784619
-0.716524485501
-0.715660473228
-0.714891341443
-0.714217657185
-0.713639963189
-0.713158780197
-0.712774609411
-0.71248793492
-0.712299226221
-0.712208940811
-0.712217526805
-0.712325425484
-0.712533073997
-0.712840908055
-0.713249364588
-0.71375888439
-0.714369914796
-0.715082912323
-0.715898345305
-0.716816696536
-0.717838465799
-0.718964172429
-0.720194357812
-0.721529587805
-0.722970455158
-0.724517581915
-0.726171621723
-0.727933262145
-0.72980322689
-0.731782277941
-0.733871217678
-0.736070890999
-0.738382187315
-0.740806042543
-0.743343441028
-0.74599541743
-0.748763058579
-0.751647505299
-0.754649954153
-0.757771659134
-0.761013933401
-0.764378150942
-0.767865748191
-0.77147822564
-0.77521714946
-0.779084153057
-0.78308093861
-0.787209278588
-0.791471017323
-0.79586807252
-0.800402436764
-0.805076179025
-0.809891446151
-0.814850464415
-0.819955541049
-0.825209065792
-0.830613512431
-0.836171440367
-0.841885496199
-0.847758415341
-0.853793023665
-0.859992239123
-0.866359073421
-0.872896633743
-0.879608124532
-0.886496849282
-0.893566212309
-0.900819720604
-0.908260985777
-0.915893726012
-0.923721768039
-0.93174904912
-0.93997961918
-0.948417642959
-0.957067402203
-0.965933297885
-0.975019852527
-0.984331712567
-0.993873650784
-1.00365056873
-1.01366749951
-1.02392961021
-1.03444220251
-1.04520362685
-1.05619976499
-1.06742217212
-1.078873665
-1.09055723945
-1.10247589153
-1.11463261437
-1.12703039368
-1.13967220718
-1.15256101991
-1.1656997821
-1.17909142678
-1.19273886715
-1.20664499398
-1.22081267406
-1.23524474808
-1.24994403014
-1.26491330587
-1.28015533276
-1.29567283961
-1.31146852828
-1.32754507643
-1.34390513828
-1.36055134697
-1.37748632346
-1.39471268573
-1.41223305367
-1.43005005264
-1.44816632823
-1.46658457074
-1.48530753433
-1.50433804256
-1.52367899717
-1.5433334277
-1.56330452944
-1.58359570047
-1.60421055597
-1.62515295673
-1.64642709884
-1.6680375625
-1.68998937682
-1.71228806634
-1.73493972904
-1.75795116235
-1.78132993273
-1.80508447965
-1.8292242683
-1.85375974446
-1.87870272629
-1.90406645113
-1.92986566092
-1.95611689701
-1.98283861322
-2.01005139473
-2.03777821595
-2.06604460067
-2.09487914026
-2.12431337432
-2.15438222855
-2.1851243674
-2.2165824786
-2.24880356352
-2.28183929502
-2.3157463284
-2.35058664962
-2.38642795546
-2.42334381635
-2.46141412236
-2.50072544754
-2.54137122772
-2.58345199957
-2.62707559876
-2.67235729153
-2.71941979305
-2.7683932504
-2.81941510561
-2.8726298226
-2.92818847544
-2.98624816012
-3.04697119142
-3.11052418642
-3.17707681353
-3.24680030422
-3.31984543854
-3.39573896532
-3.4736906189
-3.55346726454
-3.63511161169
-3.71866737022
-3.8041792737
-3.89169310357
-3.98125571343
-4.07291505423
-4.16672019942
-4.26272142032
-0.774396483135
-0.771870277998
-0.769436418818
-0.76705604884
-0.76478234909
-0.762567779753
-0.76045357384
-0.758411952478
-0.756463862062
-0.754598195288
-0.752823547875
-0.751136947423
-0.74954178757
-0.748038018456
-0.746627283887
-0.745310340214
-0.744088305749
-0.74296208
-0.741932606782
-0.74100076186
-0.74016740236
-0.739433349092
-0.738799396091
-0.738266309692
-0.73783483179
-0.737505681678
-0.737279558423
-0.737157143283
-0.737139102253
-0.737226088581
-0.737418745386
-0.73771770838
-0.738123608525
-0.73863707477
-0.739258736809
-0.739989227921
-0.740829187712
-0.74177926486
-0.742840119922
-0.744012428097
-0.745296881964
-0.746694194233
-0.748205100459
-0.749830361683
-0.751570767058
-0.753427136403
-0.755400322766
-0.757491214959
-0.759700740045
-0.762029865727
-0.764479602721
-0.767051007085
-0.769745182484
-0.772563282454
-0.775506512575
-0.778576132583
-0.781773458497
-0.785099864681
-0.788556785869
-0.792145719132
-0.79586822582
-0.799725933484
-0.803720537766
-0.807853804273
-0.812127570378
-0.816543747056
-0.821104320704
-0.825811354949
-0.830666992372
-0.835673456253
-0.840833052363
-0.846148170747
-0.85162128749
-0.857254966422
-0.863051860892
-0.869014715577
-0.875146368296
-0.881449751832
-0.887927895751
-0.894583928228
-0.901421077962
-0.908442676106
-0.915652158197
-0.923053066089
-0.930649049958
-0.938443870397
-0.946441400536
-0.954645628139
-0.963060657737
-0.971690712895
-0.98054013852
-0.989613403197
-0.998915101517
-1.00844995653
-1.01822282225
-1.02823868626
-1.0385026723
-1.049020043
-1.05979620258
-1.07083669973
-1.08214723051
-1.09373364124
-1.10560193187
-1.11775825876
-1.13020893583
-1.14295335012
-1.15597844456
-1.16927685935
-1.18285252105
-1.19670956108
-1.21085213785
-1.22528443358
-1.24001065148
-1.2550350143
-1.27036176164
-1.28599514805
-1.30193944127
-1.31819892025
-1.33477787367
-1.35168059839
-1.36891139857
-1.3864745865
-1.40437448103
-1.42261540879
-1.44120170242
-1.46013770645
-1.47942778163
-1.49907630369
-1.51908766265
-1.53946627746
-1.56021661409
-1.58134318656
-1.60285054739
-1.62474330423
-1.64702616786
-1.66970397914
-1.69278170053
-1.71626437202
-1.74015722784
-1.76446572889
-1.78919561917
-1.81435290704
-1.83994384698
-1.865975134
-1.89245389672
-1.91938780606
-1.94678505315
-1.97465441742
-2.00300550881
-2.03184875501
-2.06119549616
-2.09105811847
-2.12145012637
-2.15238681319
-2.18388442694
-2.21596097812
-2.24863635083
-2.28193243971
-2.31587336109
-2.35048570993
-2.38579879926
-2.42184478111
-2.45865907432
-2.49628061731
-2.53475212919
-2.57412043332
-2.61443677457
-2.65575715663
-2.69814267386
-2.74165985345
-2.78638099793
-2.83238447486
-2.87975507147
-2.92858431991
-2.97897074711
-3.03102010702
-3.08484557179
-3.14056786043
-3.19831528401
-3.25822371595
-3.3204364544
-3.38510395593
-3.452383424
-3.52243822715
-3.59543712503
-3.67155330576
-3.75096316264
-3.83384481139
-3.9203560782
-4.01003092315
-4.10208646056
-4.1962971089
-4.29271330776
-4.39138667804
-4.49237004968
-4.59571748983
-4.70148433191
-4.80972720513
-4.92050406416
-5.03387428083
-0.790625117236
-0.788312340983
-0.78610173322
-0.783945139252
-0.781901882811
-0.779921007894
-0.778045588761
-0.776247232069
-0.774547147696
-0.772934385218
-0.77141751938
-0.769993793794
-0.768666626027
-0.767436128101
-0.766304025329
-0.76527120609
-0.764338898725
-0.763508128711
-0.762779963157
-0.762155407319
-0.761635450183
-0.761221048566
-0.760913136008
-0.760712622266
-0.760620396535
-0.760637329386
-0.760764275285
-0.761002075085
-0.761351558691
-0.761813547654
-0.762388857906
-0.763078302536
-0.763882694605
-0.764802849948
-0.765839590077
-0.766993745093
-0.768266156577
-0.769657680445
-0.771169189817
-0.77280157793
-0.774555760981
-0.776432681026
-0.778433308808
-0.7805586465
-0.782809730464
-0.785187633955
-0.787693469808
-0.790328393113
-0.793093603808
-0.795990349235
-0.79901992667
-0.802183685781
-0.805483031048
-0.808919424163
-0.812494386377
-0.816209500812
-0.820066414717
-0.824066841688
-0.828212563857
-0.832505434054
-0.836947377956
-0.841540396191
-0.846286566386
-0.85118804523
-0.856247070505
-0.861465963135
-0.866847129218
-0.872393062004
-0.878106343856
-0.883989648245
-0.890045741759
-0.896277486147
-0.902687840276
-0.909279862124
-0.916056710791
-0.923021648592
-0.930178043146
-0.937529369447
-0.945079211944
-0.952831266687
-0.960789343549
-0.968957368445
-0.977339385552
-0.985939559556
-0.994762178025
-1.00381165384
-1.01309252761
-1.02260947014
-1.03236728489
-1.04237091069
-1.05262542438
-1.0631360435
-1.07390812905
-1.08494718831
-1.09625887783
-1.10784900638
-1.11972353804
-1.1318885953
-1.14435046228
-1.15711558808
-1.17019059008
-1.18358225741
-1.19729755478
-1.21134362571
-1.22572779421
-1.24045048155
-1.25549968934
-1.27086914027
-1.28656386842
-1.30258913813
-1.31895026782
-1.33565262585
-1.35270163013
-1.37010274569
-1.38786148367
-1.40598340041
-1.4244740947
-1.44333920834
-1.46258442482
-1.48221546781
-1.50223810085
-1.52265813009
-1.543481406
-1.56471382115
-1.58636130618
-1.60842984248
-1.63092547379
-1.65385429829
-1.67722244999
-1.70103613414
-1.72530166346
-1.75002546171
-1.77521400776
-1.8008738384
-1.82701166613
-1.85363442783
-1.88074927215
-1.90836330578
-1.93648396942
-1.96511897439
-1.99427646382
-2.02396488541
-2.05419275779
-2.08496930332
-2.116304156
-2.14820743385
-2.18069012677
-2.21376408735
-2.24744146824
-2.28173550902
-2.31666048268
-2.3522318667
-2.38846622439
-2.42538162282
-2.4629977098
-2.50133581268
-2.54041916482
-2.58027309551
-2.62092524207
-2.6624057847
-2.70474768149
-2.74798689191
-2.79216268771
-2.83731793745
-2.88349939461
-2.93075801065
-2.97914925785
-3.02873346333
-3.07957614682
-3.13174836247
-3.18532703801
-3.24039529819
-3.29704279713
-3.35536603073
-3.41546860689
-3.47746148161
-3.54146315015
-3.60759977737
-3.67600525241
-3.74682115811
-3.82019663435
-3.8962881155
-3.97525892182
-4.05727868327
-4.14252257415
-4.23117034107
-4.32340508756
-4.41941179686
-4.51935532377
-4.62277682128
-4.72890076501
-4.83750910757
-4.94865999917
-5.06241295201
-5.17882887188
-5.29797009096
-5.41990040106
-5.54468508785
-5.67239096494
-5.8030864818
-0.806641314523
-0.804544287457
-0.802559227222
-0.800628719155
-0.798818129799
-0.797073197734
-0.795438743548
-0.793885822805
-0.792435870197
-0.791078109015
-0.789821085352
-0.788662258464
-0.787605069979
-0.786649791001
-0.785798228442
-0.785051400716
-0.784410645529
-0.783877112916
-0.783451992302
-0.783136417255
-0.782931507551
-0.782838354904
-0.782858031297
-0.782991588853
-0.78324006303
-0.783604474715
-0.784085832792
-0.784685136768
-0.785403379497
-0.786241549913
-0.787200635833
-0.788281626878
-0.789485517354
-0.790813309156
-0.792266014797
-0.793844660441
-0.795550288871
-0.797383962447
-0.799346766128
-0.801439810457
-0.803664234591
-0.806021209233
-0.808511939611
-0.811137668384
-0.813899678497
-0.816799296022
-0.819837892958
-0.823016890031
-0.826337759447
-0.829802027619
-0.833411277789
-0.837167152627
-0.841071356825
-0.845125659647
-0.849331897464
-0.853691976184
-0.858207873663
-0.862881642106
-0.867715410446
-0.872711386685
-0.87787186021
-0.883199204057
-0.88869587717
-0.894364426651
-0.900207490026
-0.90622779748
-0.912428174078
-0.918811541927
-0.925380922403
-0.932139438366
-0.939090316434
-0.946236889193
-0.953582597422
-0.96113099231
-0.968885737786
-0.976850612837
-0.985029513871
-0.993426457025
-1.00204558054
-1.01089114724
-1.01996754698
-1.02927929925
-1.03883105558
-1.0486276022
-1.05867386274
-1.06897490097
-1.07953592353
-1.09036228273
-1.10145947946
-1.11283316621
-1.12448915008
-1.13643339584
-1.14867202912
-1.16121133961
-1.1740577845
-1.18721799181
-1.20069876391
-1.21450708108
-1.2286501052
-1.24313518352
-1.25796985249
-1.27316184168
-1.28871907815
-1.30464969007
-1.32096200896
-1.33765748759
-1.35472518323
-1.37215989838
-1.38996777164
-1.40815519751
-1.42672865101
-1.44569468368
-1.4650599249
-1.48483107861
-1.50501492457
-1.52561831689
-1.54664818172
-1.56811151949
-1.59001540601
-1.61236698839
-1.63517348384
-1.65844218587
-1.68218047706
-1.70639581533
-1.73109571778
-1.75628778751
-1.78197975801
-1.80817946796
-1.83489477593
-1.86213363816
-1.88990420925
-1.91821485706
-1.94707400064
-1.97649002221
-2.00647161664
-2.03702785446
-2.06816829798
-2.09990181613
-2.13223810911
-2.16518702626
-2.19875886974
-2.23296504335
-2.26781637638
-2.30332447705
-2.339501602
-2.37636031868
-2.41391419653
-2.45217766901
-2.49116585739
-2.53089485899
-2.57138186018
-2.61264525941
-2.6547047393
-2.69758147587
-2.74129828401
-2.78587976464
-2.8313524956
-2.87774522963
-2.92508910803
-2.97341789025
-3.02276819347
-3.07317974237
-3.12469565282
-3.17736272108
-3.2312317225
-3.28635772507
-3.34280041466
-3.40062442988
-3.45989970275
-3.52070180214
-3.58311227544
-3.64721898235
-3.71311642279
-3.78090604618
-3.85069652868
-3.92260401339
-3.99675230368
-4.07327299674
-4.15230554268
-4.23399721606
-4.31850298153
-4.40598523416
-4.4966133944
-4.59056333603
-4.6880166253
-4.78915954847
-4.89418190082
-5.0032755136
-5.11661224998
-5.23374043494
-5.35389188386
-5.47685606151
-5.60269880646
-5.73148749908
-5.86329109771
-5.99818017543
-6.13622695799
-6.27750536226
-6.42209103515
-6.57006147732
-0.822440417683
-0.820561355245
-0.818804021929
-0.817101798079
-0.815525982703
-0.814019124887
-0.812627695073
-0.811322260883
-0.810124443872
-0.809023657084
-0.808028410751
-0.807136379137
-0.806351028019
-0.8056727848
-0.805103538028
-0.804644434125
-0.804296919451
-0.804062267166
-0.803941787976
-0.803936742569
-0.804048380391
-0.804277926918
-0.804626591489
-0.80509556747
-0.805686035515
-0.806399165758
-0.807236120497
-0.808198056853
-0.809286129661
-0.810501494275
-0.811845309445
-0.81331874035
-0.814922961614
-0.816659160311
-0.818528539094
-0.820532319313
-0.822671744093
-0.82494808143
-0.827362627299
-0.829916708779
-0.832611687141
-0.835448960979
-0.838429969266
-0.841556194406
-0.844829165182
-0.848250459721
-0.851821708457
-0.855544597074
-0.859420869371
-0.863452330083
-0.867640847681
-0.871988357137
-0.876496862663
-0.881168440426
-0.886005241183
-0.891009492881
-0.896183503244
-0.901529662361
-0.907050445236
-0.912748414291
-0.918626221832
-0.924686612515
-0.930932425792
-0.937366598373
-0.943992166682
-0.950812269295
-0.95783014933
-0.965049156849
-0.972472751297
-0.980104503969
-0.987948100489
-0.99600734325
-1.00428615386
-1.01278857564