/*--------------------------------*- C++ -*----------------------------------*\
| =========                 |                                                 |
| \\      /  F ield         | OpenFOAM: The Open Source CFD Toolbox           |
|  \\    /   O peration     | Version:  2412                                  |
|   \\  /    A nd           | Website:  www.openfoam.com                      |
|    \\/     M anipulation  |                                                 |
\*---------------------------------------------------------------------------*/
FoamFile
{
    version     2.0;
    format      ascii;
    arch        "LSB;label=32;scalar=64";
    class       volScalarField;
    location    "3";
    object      p_rgh;
}
// * * * * * * * * * * * * * * * * * * * * * * * * * * * * * * * * * * * * * //

dimensions      [1 -1 -2 0 0 0 0];

internalField   nonuniform List<scalar> 
64000
(
-0.162719200697
-0.158877168024
-0.155066391175
-0.151303767418
-0.147604219856
-0.143942438757
-0.140346939014
-0.136794680743
-0.133304278758
-0.129863934319
-0.126482173657
-0.123154650252
-0.119884568716
-0.116670779272
-0.113514385053
-0.110415239685
-0.107373726273
-0.104389891335
-0.101463851595
-0.0985956118078
-0.0957851453211
-0.0930323620561
-0.0903371231956
-0.0876992374072
-0.0851184644034
-0.08259451585
-0.0801270572777
-0.0777157098065
-0.0753600521046
-0.0730596222419
-0.0708139196263
-0.0686224071038
-0.0664845129773
-0.0643996329943
-0.0623671324425
-0.0603863482414
-0.0584565909806
-0.0565771469328
-0.05474728008
-0.052966234141
-0.0512332345219
-0.0495474902533
-0.0479081958964
-0.046314533343
-0.0447656735926
-0.0432607784743
-0.0417990022729
-0.0403794933705
-0.0390013958123
-0.0376638507467
-0.0363659978516
-0.035106976671
-0.0338859278289
-0.0327019942467
-0.0315543223024
-0.0304420628493
-0.0293643722021
-0.0283204130885
-0.0273093554941
-0.026330377452
-0.0253826657864
-0.0244654167799
-0.0235778367933
-0.0227191428324
-0.0218885630164
-0.0210853370004
-0.0203087164023
-0.0195579651801
-0.0188323599204
-0.0181311900894
-0.0174537582744
-0.0167993803785
-0.0161673857545
-0.0155571173014
-0.0149679315453
-0.0143991987001
-0.0138503026969
-0.0133206411752
-0.0128096254506
-0.0123166804776
-0.0118412448054
-0.0113827705032
-0.010940723045
-0.0105145811726
-0.0101038367601
-0.00970799467884
-0.00932657264643
-0.00895910105413
-0.00860512278389
-0.00826419302888
-0.00793587911435
-0.00761976030502
-0.00731542759554
-0.00702248349446
-0.00674054181376
-0.00646922746215
-0.00620817623275
-0.00595703458274
-0.00571545941126
-0.00548311783578
-0.00525968697586
-0.00504485371079
-0.00483831442299
-0.00463977526823
-0.00444894985865
-0.00426559661765
-0.00408953113017
-0.00392052925028
-0.00375833503569
-0.00360269650527
-0.00345337081607
-0.00331012272681
-0.00317272472887
-0.00304095656018
-0.00291460564837
-0.00279346578188
-0.00267733872248
-0.00256603146939
-0.00245935887597
-0.00235714059111
-0.00225920429009
-0.00216538142766
-0.00207551137833
-0.00198943672558
-0.00190700743429
-0.00182807777055
-0.00175250676134
-0.00168015974756
-0.00161090445759
-0.00154461586317
-0.00148117111599
-0.00142045334185
-0.00136234850644
-0.00130674792091
-0.00125354554477
-0.00120264013668
-0.00115393357749
-0.00110733094017
-0.00106274146665
-0.00102007881751
-0.000979260090333
-0.000940190583557
-0.000902798378391
-0.000867013772466
-0.000832761044698
-0.000799968506445
-0.000768567295714
-0.000738493333974
-0.000709683207094
-0.000682075965358
-0.000655613184092
-0.000630238207084
-0.000605896525775
-0.000582535826619
-0.000560106188317
-0.000538559299134
-0.000517849011998
-0.000497930883495
-0.000478761504094
-0.000460298765742
-0.000442501837212
-0.000425332509283
-0.000408754742458
-0.00039273396101
-0.000377236716153
-0.000362230908511
-0.000347685525002
-0.000333570951974
-0.000319858745656
-0.000306521388003
-0.000293532276344
-0.000280865691602
-0.000268497519155
-0.000256405793028
-0.000244571067093
-0.000232976371837
-0.000221606902285
-0.000210449268546
-0.000199490639723
-0.000188718770673
-0.000178122570744
-0.000167691955494
-0.000157417788664
-0.000147291427347
-0.00013730474264
-0.000127451818464
-0.000117729253447
-0.000108135537584
-9.86717535133e-05
-8.93709880589e-05
-8.02583145101e-05
-7.13242966055e-05
-6.25491264584e-05
-5.39131873446e-05
-4.53971035998e-05
-3.69816741446e-05
-2.86478490476e-05
-2.03767072603e-05
-1.21494461939e-05
-3.93956142528e-06
-0.160391048315
-0.156567504162
-0.152780911337
-0.149038751771
-0.145362263893
-0.141722257378
-0.138149302906
-0.134619438979
-0.131151554671
-0.127733852608
-0.124374737911
-0.1210699808
-0.117822676642
-0.114631737828
-0.111498216204
-0.108421982503
-0.105403398846
-0.102442510771
-0.0995394242279
-0.0966941379162
-0.0939066171308
-0.0911767646885
-0.088504434414
-0.0858894278769
-0.0833314977244
-0.0808303486691
-0.0783856394148
-0.0759969843634
-0.0736639555509
-0.0713860845648
-0.0691628644924
-0.0669937519828
-0.0648781692648
-0.0628155061514
-0.0608051221491
-0.0588463485395
-0.0569384904204
-0.0550808287369
-0.0532726222977
-0.051513109802
-0.0498015118005
-0.0481370326146
-0.0465188622638
-0.0449461782698
-0.0434181474058
-0.0419339274398
-0.0404926687696
-0.0390935160342
-0.0377356097069
-0.0364180875377
-0.0351400859415
-0.0339007413609
-0.0326991914973
-0.0315345764997
-0.0304060401242
-0.0293127307601
-0.0282538024018
-0.0272284156135
-0.0262357383782
-0.0252749468645
-0.024345226183
-0.0234457710697
-0.0225757864723
-0.0217344880996
-0.0209211029176
-0.0201348695819
-0.0193750388435
-0.0186408739192
-0.0179316507878
-0.0172466584393
-0.0165851991106
-0.0159465884766
-0.0153301557727
-0.0147352438888
-0.0141612094594
-0.0136074229289
-0.013073268562
-0.0125581444184
-0.0120614623294
-0.0115826478777
-0.0111211403492
-0.0106763926341
-0.0102478710976
-0.00983505545029
-0.00943743862572
-0.00905452664248
-0.0086858384367
-0.00833090567762
-0.00798927259053
-0.00766049578678
-0.00734414407899
-0.00703979827248
-0.0067470509494
-0.00646550625985
-0.00619477971395
-0.00593449796483
-0.00568429858833
-0.00544382986685
-0.00521275056777
-0.004990729711
-0.00477744634704
-0.00457258930562
-0.00437585700723
-0.00418695759328
-0.00400560659778
-0.00383156536019
-0.00366465327903
-0.00350464909984
-0.0033512984494
-0.00320435116462
-0.003063566272
-0.00292871025658
-0.00279955755426
-0.00267588987097
-0.00255749647585
-0.0024441731471
-0.00233572359048
-0.00223195687178
-0.00213268969394
-0.00203774417396
-0.00194694923526
-0.00186013925338
-0.0017771545751
-0.00169784129465
-0.00162205029131
-0.00154963828375
-0.00148046639766
-0.00141440161836
-0.00135131460547
-0.00129108102631
-0.00123358133627
-0.00117869970282
-0.0011263249679
-0.0010763495466
-0.00102867019408
-0.00098318723492
-0.000939804729947
-0.000898429655799
-0.000858972885316
-0.000821348820796
-0.000785474717199
-0.000751268075721
-0.000718652638006
-0.000687556271082
-0.000657907854611
-0.000629638311322
-0.000602681419034
-0.000576973182933
-0.000552452611399
-0.000529061007051
-0.000506741701335
-0.000485439812239
-0.000465101845817
-0.000445677260588
-0.000427117966258
-0.000409377862832
-0.000392412937736
-0.000376180296607
-0.000360638579617
-0.000345746737113
-0.000331464068898
-0.000317754452264
-0.000304584256988
-0.000291920966894
-0.000279732855218
-0.000267989527141
-0.000256661497822
-0.000245720858462
-0.000235140694936
-0.000224895060876
-0.000214958514163
-0.000205305665286
-0.000195912781116
-0.000186758758633
-0.000177825593617
-0.00016909843826
-0.00016056533385
-0.000152215722233
-0.000144038491174
-0.00013602234122
-0.000128157686168
-0.000120435791825
-0.000112849087077
-0.000105389725064
-9.80484617719e-05
-9.0819803534e-05
-8.37020652174e-05
-7.66954177376e-05
-6.98025802668e-05
-6.30589585717e-05
-5.64910332927e-05
-5.00907571885e-05
-4.38397215289e-05
-3.77195787108e-05
-3.17121807677e-05
-2.57995772536e-05
-1.99639580092e-05
-1.41876626165e-05
-8.45284055838e-06
-2.74564701931e-06
-0.157895467856
-0.154093460574
-0.150334028584
-0.146615290489
-0.142964838692
-0.139349527865
-0.13580206893
-0.132297494811
-0.12885503078
-0.125462838636
-0.122129227395
-0.118850065606
-0.115628350499
-0.112463047442
-0.109355161199
-0.106304575678
-0.103311632787
-0.100376375409
-0.0974988983319
-0.0946791931871
-0.0919172165432
-0.0892128633741
-0.0865659794542
-0.0839763585617
-0.0814437456801
-0.0789678379946
-0.0765482867915
-0.0741846992312
-0.0718766402801
-0.0696236346047
-0.0674251685265
-0.0652806921098
-0.0631896211851
-0.0611513393374
-0.059165200026
-0.0572305286783
-0.0553466247159
-0.0535127635987
-0.0517281988366
-0.049992164013
-0.048303874774
-0.0466625307321
-0.0450673173781
-0.0435174079099
-0.0420119649568
-0.0405501423225
-0.0391310866578
-0.0377539390445
-0.0364178365693
-0.0351219137949
-0.0338653041307
-0.0326471411915
-0.0314665600454
-0.0303226983789
-0.0292146976573
-0.0281417041727
-0.0271028699884
-0.0260973538904
-0.0251243222691
-0.024182949878
-0.0232724205633
-0.0223919279511
-0.0215406760347
-0.0207178797117
-0.0199227652922
-0.0191545709332
-0.018412547021
-0.0176959565405
-0.0170040753938
-0.016336192639
-0.0156916106891
-0.0150696454991
-0.0144696267182
-0.0138908977901
-0.0133328160177
-0.0127947526021
-0.0122760926571
-0.011776235203
-0.0112945931495
-0.0108305932601
-0.0103836760808
-0.00995329583342
-0.00953892029618
-0.0091400306832
-0.00875612151516
-0.00838670046317
-0.00803128817172
-0.00768941808386
-0.00736063627426
-0.00704450126919
-0.00674058384079
-0.00644846679478
-0.00616774476844
-0.00589802402268
-0.00563892221487
-0.00539006817306
-0.00515110168782
-0.00492167329951
-0.00470144405925
-0.00449008528861
-0.00428727836682
-0.00409271447554
-0.00390609445436
-0.00372712879882
-0.00355553530642
-0.00339107854765
-0.00323358203667
-0.00308282750394
-0.00293856260785
-0.00280053932751
-0.00266851886194
-0.00254226969315
-0.00242156864061
-0.00230619959788
-0.0021959539996
-0.00209062997516
-0.00199003305508
-0.00189397506768
-0.00180227458547
-0.00171475658242
-0.00163125156968
-0.00155159673288
-0.0014756341182
-0.0014032128754
-0.00133418563105
-0.00126841152296
-0.00120575427114
-0.00114608214156
-0.00108926901903
-0.00103519192889
-0.000983734157805
-0.000934781980477
-0.000888226253205
-0.000843961222923
-0.000801886320608
-0.000761903967204
-0.000723920493359
-0.000687844587285
-0.000653588563888
-0.000621068860458
-0.000590205366439
-0.00056091966285
-0.000533136253693
-0.000506783397657
-0.000481792291174
-0.000458096411523
-0.000435631452469
-0.000414334854465
-0.000394147730513
-0.000375013686061
-0.000356878647034
-0.000339689172273
-0.000323391920651
-0.000307938190089
-0.000293282398392
-0.000279380755837
-0.000266191266714
-0.00025367349553
-0.000241788375997
-0.00023049675914
-0.000219754683988
-0.000209529032306
-0.000199789953768
-0.000190507188749
-0.00018165073172
-0.000173191743195
-0.000165102341066
-0.00015735617612
-0.000149928470958
-0.000142795153032
-0.000135932102751
-0.000129313572377
-0.000122915219395
-0.000116716144673
-0.000110700531336
-0.00010485549615
-9.9172430137e-05
-9.3646228841e-05
-8.82664539571e-05
-8.30220199416e-05
-7.79044957413e-05
-7.29073600902e-05
-6.80258918713e-05
-6.32534143764e-05
-5.85752017997e-05
-5.39868305393e-05
-4.94889869393e-05
-4.50842481823e-05
-4.07774439227e-05
-3.66052157844e-05
-3.25961830683e-05
-2.87437846123e-05
-2.50307855256e-05
-2.14401297771e-05
-1.79549489872e-05
-1.45585521171e-05
-1.12343872095e-05
-7.9660113586e-06
-4.73691317332e-06
-1.54544819154e-06
-0.155233794031
-0.151456304866
-0.147727016593
-0.14403467241
-0.140413186609
-0.136825516551
-0.133306457663
-0.129830076578
-0.126415907205
-0.123052084628
-0.119746814583
-0.116496063859
-0.113302732239
-0.110165835022
-0.107086330671
-0.104064114214
-0.101099507187
-0.0981925485598
-0.0953433213511
-0.0925518092824
-0.0898179594882
-0.0871416583627
-0.0845227429883
-0.0819609987005
-0.079456162151
-0.0770079224006
-0.0746159227962
-0.0722797627444
-0.0699989996519
-0.0677731508339
-0.0656016954617
-0.0634840766375
-0.0614197034505
-0.0594079529609
-0.0574481723186
-0.0555396808754
-0.0536817721931
-0.0518737160898
-0.0501147606688
-0.0484041343212
-0.0467410477328
-0.045124695794
-0.0435542594798
-0.0420289077024
-0.0405477990414
-0.039110083459
-0.0377149039876
-0.0363613983086
-0.0350487003147
-0.0337759416067
-0.0325422528479
-0.031346765089
-0.0301886110513
-0.0290669262884
-0.027980850312
-0.026929527657
-0.0259121088376
-0.0249277512742
-0.023975620181
-0.0230548893222
-0.0221647417097
-0.0213043703051
-0.0204729786296
-0.0196697812667
-0.0188940043424
-0.01814488599
-0.0174216767519
-0.0167236399233
-0.016050051847
-0.01540020215
-0.0147733939437
-0.0141689440134
-0.0135861829731
-0.0130244553545
-0.0124831196503
-0.0119615483476
-0.0114591279572
-0.0109752590165
-0.0105093560577
-0.0100608475488
-0.00962917581461
-0.00921379693827
-0.0088141806475
-0.00842981018748
-0.00806018217318
-0.00770480642343
-0.00736320579256
-0.00703491600826
-0.00671948549601
-0.00641647517279
-0.00612545823452
-0.00584601996286
-0.00557775752753
-0.00532027975325
-0.00507320687814
-0.00483617034497
-0.00460881260224
-0.00439078687008
-0.00418175688611
-0.00398139667949
-0.0037893903641
-0.00360543186567
-0.00342922481693
-0.00326048243189
-0.00309892512195
-0.00294432101913
-0.00279649798614
-0.00265524087376
-0.00252029982625
-0.00239142932353
-0.00226839290842
-0.00215096173537
-0.00203891485777
-0.00193203887796
-0.00183012757594
-0.00173298187962
-0.00164040945
-0.00155222496826
-0.00146824929218
-0.00138831000271
-0.00131224025314
-0.00123987962977
-0.00117107299786
-0.00110567144491
-0.00104353039483
-0.000984511535278
-0.000928481128986
-0.000875309711153
-0.000824873336633
-0.000777051752295
-0.000731730138132
-0.000688798124678
-0.000648147922458
-0.000609676040424
-0.000573284266775
-0.000538878462153
-0.000506367151412
-0.000475660154928
-0.000446671015832
-0.000419318884461
-0.000393526958212
-0.00036922002912
-0.000346323590126
-0.000324767068976
-0.00030448404459
-0.000285410976643
-0.000267484894053
-0.000250643983426
-0.000234831641344
-0.000219994252244
-0.000206081336497
-0.000193042499586
-0.000180821804377
-0.000169372145279
-0.000158652065536
-0.000148619050047
-0.000139234226269
-0.000130459572315
-0.000122258644556
-0.000114598304038
-0.000107418398888
-0.000100695443874
-9.44074605999e-05
-8.852599802e-05
-8.30218421542e-05
-7.78678801043e-05
-7.30372608576e-05
-6.85052100195e-05
-6.42495866442e-05
-6.02487887302e-05
-5.64813151305e-05
-5.29188398974e-05
-4.95347323964e-05
-4.63070415846e-05
-4.32237819044e-05
-4.02729203006e-05
-3.74497511261e-05
-3.47616431207e-05
-3.21953499879e-05
-2.97375553031e-05
-2.7381527059e-05
-2.51230994207e-05
-2.29632554852e-05
-2.09012469675e-05
-1.89029352108e-05
-1.69688048642e-05
-1.51042052212e-05
-1.33147112089e-05
-1.16072324629e-05
-1.00199578787e-05
-8.58314829529e-06
-7.29167602293e-06
-6.12958630303e-06
-5.081119502e-06
-4.13070122327e-06
-3.26292523693e-06
-2.46252190104e-06
-1.71432818432e-06
-1.00304983495e-06
-3.39437292191e-07
-0.152407609623
-0.148657585807
-0.144961408421
-0.141298418579
-0.137708804895
-0.134151708261
-0.130663930771
-0.127218628764
-0.123835608573
-0.120502995661
-0.117228884907
-0.114009341191
-0.110847167567
-0.107741426364
-0.104693030507
-0.101701884133
-0.098768288239
-0.0958922767005
-0.0930739201401
-0.0903131934893
-0.087610033773
-0.0849643180899
-0.0823758741366
-0.0798444781666
-0.0773698579254
-0.0749516937775
-0.0725896205714
-0.0702832294483
-0.0680320697777
-0.0658356510754
-0.0636934449681
-0.0616048872501
-0.0595693799462
-0.0575862933099
-0.0556549679206
-0.053774716818
-0.0519448275166
-0.0501645640441
-0.0484331689911
-0.0467498654968
-0.0451138592361
-0.0435243403491
-0.0419804853159
-0.0404814588148
-0.0390264154596
-0.03761450148
-0.0362448564253
-0.0349166147595
-0.0336289073804
-0.0323808631253
-0.0311716101544
-0.0300002772454
-0.0288659950641
-0.0277678973395
-0.0267051219653
-0.0256768120794
-0.0246821170376
-0.0237201932995
-0.0227902052931
-0.0218913262046
-0.0210227386758
-0.0201836354701
-0.0193732200826
-0.0185907072454
-0.017835323399
-0.0171063071659
-0.0164029097588
-0.0157243952911
-0.0150700410444
-0.014439137725
-0.0138309896865
-0.0132449150989
-0.0126802460711
-0.0121363287343
-0.0116125232971
-0.0111082040851
-0.0106227595608
-0.0101555923149
-0.00970611902428
-0.00927377038771
-0.00885799104239
-0.00845823946576
-0.00807398786049
-0.00770472201509
-0.00734994114171
-0.0070091577105
-0.00668189729689
-0.00636769841958
-0.00606611233702
-0.00577670282466
-0.00549904598035
-0.00523273004491
-0.00497735518028
-0.00473253321217
-0.0044978874035
-0.00427305226241
-0.00405767332393
-0.00385140689467
-0.00365391980966
-0.00346488922057
-0.00328400237289
-0.00311095631889
-0.00294545785809
-0.00278722328148
-0.00263597598374
-0.00249148798114
-0.00235359163675
-0.00222207519931
-0.00209669168615
-0.00197719834922
-0.00186336137444
-0.00175495510271
-0.00165176077553
-0.00155356821707
-0.00146017385073
-0.00137138152779
-0.00128700163286
-0.00120685173869
-0.001130755361
-0.00105854273769
-0.000990049975162
-0.000925119321708
-0.000863598702593
-0.000805341443277
-0.000750206083486
-0.000698056724707
-0.000648762496641
-0.000602196977863
-0.000558237616474
-0.000516767225591
-0.00047767350761
-0.000440849615986
-0.000406189439857
-0.000373590748959
-0.000342957723294
-0.000314201402072
-0.000287233510002
-0.000261963573672
-0.000238305337313
-0.000216180912696
-0.000195519351498
-0.000176248592725
-0.000158292934087
-0.000141582316988
-0.000126053690636
-0.000111648839654
-9.83079165048e-05
-8.59664094216e-05
-7.45696058769e-05
-6.40678350252e-05
-5.44146157931e-05
-4.55668928894e-05
-3.74514259175e-05
-3.0028178463e-05
-2.32677948842e-05
-1.71259326925e-05
-1.15693984956e-05
-6.56116665447e-06
-2.06666801e-06
1.91572569379e-06
5.51203286132e-06
8.71062310615e-06
1.15216580996e-05
1.39761912215e-05
1.61052705376e-05
1.79320942312e-05
1.94842007191e-05
2.07846880961e-05
2.18512901315e-05
2.27028142709e-05
2.33524930903e-05
2.38374797247e-05
2.41890793956e-05
2.44338754789e-05
2.45719579688e-05
2.46209521021e-05
2.45852752584e-05
2.44193743228e-05
2.41548263048e-05
2.38124243711e-05
2.33943072156e-05
2.29043009086e-05
2.23305622108e-05
2.16436552999e-05
2.0948547434e-05
2.02178302722e-05
1.9437982587e-05
1.86004515913e-05
1.76964701857e-05
1.66864269253e-05
1.55387554277e-05
1.42572506001e-05
1.28565565459e-05
1.1351123707e-05
9.75521684659e-06
8.08293695433e-06
6.34824830713e-06
4.56500249955e-06
2.74730712081e-06
8.7192258318e-07
-0.149418758435
-0.145699119512
-0.142038991668
-0.138408298003
-0.134853436605
-0.131329825176
-0.127876185442
-0.12446482577
-0.121115785265
-0.117817198567
-0.114577041171
-0.111391476578
-0.108263211379
-0.105191352342
-0.102176767455
-0.0992193681445
-0.0963194346291
-0.0934769945507
-0.0906921055602
-0.0879647329822
-0.0852948030081
-0.0826821827179
-0.0801266897853
-0.0776280907376
-0.0751861037955
-0.0728004000764
-0.0704706054192
-0.0681963022065
-0.0659770313104
-0.0638122940074
-0.0617015539732
-0.0596442393416
-0.0576397447511
-0.0556874333641
-0.0537866389512
-0.0519366680246
-0.050136801877
-0.0483862986087
-0.0466843951757
-0.0450303093746
-0.0434232418268
-0.0418623779251
-0.040346889685
-0.0388759375861
-0.037448672349
-0.036064236604
-0.0347217665578
-0.0334203936094
-0.0321592458667
-0.0309374496359
-0.0297541308181
-0.0286084161811
-0.0274994346119
-0.0264263183269
-0.0253882039716
-0.0243842336544
-0.0234135559205
-0.0224753266474
-0.0215687099017
-0.0206928787315
-0.0198470158469
-0.0190303142508
-0.0182419778559
-0.0174812220257
-0.0167472740321
-0.0160393734873
-0.0153567727492
-0.0146987372467
-0.0140645457358
-0.0134534905389
-0.0128648777649
-0.0122980274792
-0.0117522738152
-0.0112269650453
-0.0107214636343
-0.0102351462789
-0.00976740392473
-0.0093176417482
-0.00888527910491
-0.00846974945275
-0.00807050026547
-0.007686992939
-0.00731870267158
-0.00696511830451
-0.0066257421482
-0.00630008983198
-0.00598769016435
-0.00568808494752
-0.00540082874372
-0.00512548866146
-0.0048616441863
-0.00460888698754
-0.00436682066249
-0.00413506048276
-0.00391323318992
-0.00370097679303
-0.00349794032601
-0.00330378359714
-0.00311817695918
-0.00294080109049
-0.00277134675373
-0.00260951450903
-0.00245501469366
-0.00230756703959
-0.00216689830896
-0.00203278467248
-0.00190506315623
-0.00178352576258
-0.00166792862983
-0.00155803207864
-0.0014536053416
-0.00135442603538
-0.00126027837676
-0.00117095533331
-0.00108625649686
-0.00100598852553
-0.000929965152563
-0.00085800684595
-0.000789940298303
-0.000725598618109
-0.000664820795065
-0.000607452319479
-0.000553343955669
-0.00050235227364
-0.000454338614937
-0.000409169671244
-0.000366718186546
-0.000326860759623
-0.000289476144509
-0.000254448803136
-0.000221671368991
-0.000191041220332
-0.000162453847351
-0.000135805485366
-0.00011100305283
-8.79664097125e-05
-6.66139860474e-05
-4.68486468178e-05
-2.85808222309e-05
-1.17362001261e-05
3.74184404232e-06
1.79170704692e-05
3.08763224831e-05
4.2689653686e-05
5.34177548287e-05
6.31097230587e-05
7.18266434435e-05
7.96414369191e-05
8.65990488547e-05
9.27423660501e-05
9.81134263075e-05
0.000102716346777
0.000106689320585
0.000110051347416
0.000112806695169
0.000115023535183
0.000116717160617
0.000117929000367
0.00011871460194
0.000119107511691
0.000119196075552
0.000118857461132
0.000118144015804
0.000117127116134
0.000115839736096
0.000114299896717
0.00011253901512
0.00011057177924
0.00010841906734
0.000106096281087
0.00010356859649
0.000100917126643
9.82097169848e-05
9.54342035703e-05
9.25907243607e-05
8.9685963788e-05
8.67205264426e-05
8.36829150523e-05
8.05828755004e-05
7.74306761872e-05
7.42301506343e-05
7.09824919285e-05
6.76836983643e-05
6.43313249188e-05
6.09566946986e-05
5.7556807038e-05
5.4123574953e-05
5.06485724216e-05
4.71220690443e-05
4.35034284766e-05
3.97600648954e-05
3.58945461578e-05
3.1920201168e-05
2.78501597053e-05
2.36973635054e-05
1.94745905228e-05
1.51944771504e-05
1.08695408694e-05
6.51269174476e-06
2.08815878808e-06
-0.146269336287
-0.142582978116
-0.13896180474
-0.135366323512
-0.131849064687
-0.128361822434
-0.124945148173
-0.12157056546
-0.118258306804
-0.114996534298
-0.11179309595
-0.108644254151
-0.105552619411
-0.102517340403
-0.0995392407185
-0.0966182372706
-0.0937545892998
-0.0909483171165
-0.0881994647648
-0.0855079871722
-0.0828737990602
-0.0802967567868
-0.0777766673413
-0.0753132869144
-0.0729063236063
-0.0705554387072
-0.0682602485219
-0.0660203261882
-0.0638352036417
-0.0617043735223
-0.0596272911738
-0.0576033767117
-0.0556320170615
-0.0537125679938
-0.0518443562299
-0.0500266815666
-0.0482588189106
-0.0465400202896
-0.0448695169142
-0.0432465211748
-0.0416702285925
-0.0401398197777
-0.0386544623105
-0.0372133125516
-0.0358155174064
-0.0344602160021
-0.0331465413385
-0.0318736219236
-0.0306405832943
-0.0294465494548
-0.028290644266
-0.0271719927455
-0.0260897223165
-0.0250429640079
-0.0240308535385
-0.0230525323286
-0.0221071484854
-0.0211938577139
-0.0203118241394
-0.01946022107
-0.0186382316932
-0.0178450497155
-0.0170798799606
-0.0163419388986
-0.0156304550939
-0.0149446696282
-0.0142838365084
-0.0136472229953
-0.0130341098405
-0.0124437914954
-0.0118755763314
-0.0113287868282
-0.010802759679
-0.0102968458345
-0.00981041054168
-0.00934283339197
-0.00889350834646
-0.00846184370449
-0.00804726202557
-0.0076492000427
-0.00726710858723
-0.00690045250028
-0.00654871049083
-0.00621137495091
-0.00588795179072
-0.00557796031388
-0.0052809330661
-0.00499641560812
-0.00472396627418
-0.00446315599016
-0.0042135681089
-0.00397479817997
-0.00374645367977
-0.00352815377843
-0.00331952913783
-0.00312022168775
-0.00292988438077
-0.00274818095068
-0.00257478567559
-0.00240938315095
-0.00225166804148
-0.00210134479472
-0.00195812765702
-0.00182174017284
-0.00169191283347
-0.00156842622416
-0.00145112225154
-0.00133979688751
-0.00123420972028
-0.00113412442316
-0.00103931380514
-0.000949558704497
-0.000864647191673
-0.000784375184558
-0.00070854571671
-0.000636968836205
-0.000569461648335
-0.000505847856025
-0.000445957621371
-0.000389627062978
-0.00033669815516
-0.000287019911472
-0.000240446665753
-0.000196838640938
-0.000156058888301
-0.000117977153449
-8.24712361404e-05
-4.94219554419e-05
-1.87074257989e-05
9.7885525678e-06
3.61660960612e-05
6.051758323e-05
8.29483024214e-05
0.000103573079225
0.000122483776501
0.000139740423447
0.000155400624194
0.000169587721948
0.000182401718293
0.00019391834025
0.000204168327237
0.000213196668249
0.000221126442074
0.000228015707825
0.000233921730097
0.000238856508006
0.000242880209855
0.000246112296399
0.000248577128881
0.000250313658319
0.000251387418181
0.000251874147144
0.000251916037235
0.00025119138324
0.000249901492044
0.000248128868095
0.000245905773911
0.000243271246529
0.000240268520454
0.000236911873253
0.000233186004779
0.000229179214935
0.000224924862022
0.000220432072672
0.000215722231219
0.0002108153857
0.000205733980446
0.000200495576877
0.000195117118106
0.000189611769519
0.000183984192248
0.000178272322054
0.000172512164154
0.000166712636523
0.000160878521247
0.000155014308192
0.00014912123552
0.000143197161879
0.000137245874194
0.000131272184008
0.000125278543771
0.000119265385931
0.000113231401251
0.000107177292968
0.000101112130421
9.50348406818e-05
8.89392453399e-05
8.28170907234e-05
7.66579481066e-05
7.04204352434e-05
6.40711891351e-05
5.76116338677e-05
5.10537830472e-05
4.44094368285e-05
3.76902011401e-05
3.09075110931e-05
2.4072652849e-05
1.71967883305e-05
1.0291609494e-05
3.30878902058e-06
-0.142961693725
-0.139311484544
-0.135732132264
-0.132174749133
-0.128697908666
-0.125249887081
-0.121872972875
-0.118537968561
-0.115265261033
-0.112043057624
-0.108879071115
-0.105769662977
-0.102717347981
-0.0997213142168
-0.0967823414354
-0.0939003503239
-0.0910755788635
-0.0883080389965
-0.0855977605644
-0.0829446872706
-0.080348721703
-0.077809708838
-0.0753274443498
-0.0729016734939
-0.0705320936912
-0.0682183558497
-0.0659600662108
-0.0637567881837
-0.0616080443173
-0.0595133182135
-0.0574720565138
-0.0554836709748
-0.0535475405089
-0.0516630132336
-0.0498294085759
-0.0480460193912
-0.0463121140269
-0.0446269383272
-0.0429897176562
-0.0413996589068
-0.0398559524662
-0.0383577741681
-0.0369042871811
-0.0354946437977
-0.0341279871804
-0.0328034530669
-0.0315201714186
-0.0302772680226
-0.0290738660103
-0.0279090872963
-0.026782053968
-0.0256918895853
-0.0246377203994
-0.0236186765346
-0.022633893099
-0.0216825112014
-0.0207636789067
-0.0198765521226
-0.0190202954101
-0.0181940827474
-0.0173970982456
-0.0166285367804
-0.0158876045475
-0.015173519571
-0.0144855121755
-0.0138228254194
-0.0131847154735
-0.0125704519203
-0.0119793179874
-0.011410610765
-0.0108636414254
-0.0103377353937
-0.00983223243477
-0.00934648668699
-0.00887986670485
-0.00843175551338
-0.00800155062267
-0.00758866397166
-0.00719252183292
-0.00681256473277
-0.00644824738866
-0.00609903860534
-0.00576442109861
-0.00544389130593
-0.0051369592515
-0.00484314842663
-0.00456199559516
-0.0042930505385
-0.00403587584195
-0.00379004673646
-0.00355515090479
-0.00333078822008
-0.00311657048572
-0.00291212121521
-0.00271707541839
-0.00253107937058
-0.00235379036966
-0.00218487648414
-0.00202401630992
-0.00187089875102
-0.00172522275914
-0.00158669704733
-0.00145504014503
-0.00132997976657
-0.0012112504813
-0.00109863757991
-0.00099198797305
-0.00089110181572
-0.000795742648904
-0.00070567766998
-0.000620683861623
-0.000540545266867
-0.000465054102887
-0.000394009604595
-0.000327218412496
-0.000264494739769
-0.000205658735887
-0.000150537860607
-9.89661532388e-05
-5.07830890134e-05
-5.83321958132e-06
3.60315052544e-05
7.4950950473e-05
0.000111060470858
0.000144497106348
0.000175389781527
0.000203851467911
0.000229991903141
0.00025394205752
0.000275825952623
0.000295733101853
0.000313725239034
0.000329904427167
0.000344424474879
0.000357389743769
0.000368825591563
0.000378713058684
0.0003872678203
0.000394592954941
0.000400775034559
0.000405759913049
0.000409521660311
0.00041234303818
0.000414235364496
0.000415289198568
0.000415667538741
0.000415290716299
0.000413926221105
0.000411840603477
0.000409111007703
0.00040578689921
0.00040183787465
0.000397402237487
0.000392511016683
0.000387165440199
0.00038140579197
0.000375266331095
0.000368781152377
0.000361982554297
0.000354891765143
0.0003475247239
0.000339924713268
0.000332122527678
0.000324137826466
0.000315990453422
0.000307699584044
0.000299284195695
0.000290761188495
0.000282146091266
0.000273452668294
0.000264693905096
0.000255892616007
0.000247070918036
0.000238240656583
0.000229408584599
0.000220579026408
0.000211753903379
0.000202933524256
0.000194119516678
0.000185313751188
0.000176516952909
0.000167728548638
0.000158947097196
0.000150171801062
0.000141403474756
0.000132639047038
0.000123871982097
0.00011509353551
0.000106292453094
9.74267340116e-05
8.84624095226e-05
7.93998058812e-05
7.02496138051e-05
6.10222929023e-05
5.17280958064e-05
4.23770930289e-05
3.29791980578e-05
2.35441957316e-05
1.4082537668e-05
4.5333218902e-06
-0.139498434208
-0.135887209927
-0.132352502529
-0.12883606742
-0.12540242176
-0.121996434881
-0.118662037761
-0.115369375526
-0.112138951125
-0.108959034284
-0.105837195213
-0.102769894428
-0.0997595514485
-0.0968053913346
-0.0939081504605
-0.0910677516502
-0.0882844113634
-0.085558132138
-0.0828889290416
-0.0802767337926
-0.0777214361742
-0.075222869115
-0.0727808163481
-0.0703950115764
-0.0680651409852
-0.0657908445873
-0.0635717180753
-0.0614073146693
-0.0592971470903
-0.0572406894767
-0.0552373793887
-0.0532866199022
-0.0513877816306
-0.0495402047624
-0.0477432012067
-0.0459960567064
-0.0442980328768
-0.0426483692185
-0.04104628514
-0.0394909819807
-0.0379816449757
-0.0365174451767
-0.035097541341
-0.0337210817455
-0.032387205924
-0.0310950463539
-0.0298437300872
-0.0286323803409
-0.0274601180364
-0.0263260632415
-0.0252293365226