/*--------------------------------*- C++ -*----------------------------------*\
| =========                 |                                                 |
| \\      /  F ield         | OpenFOAM: The Open Source CFD Toolbox           |
|  \\    /   O peration     | Version:  2412                                  |
|   \\  /    A nd           | Website:  www.openfoam.com                      |
|    \\/     M anipulation  |                                                 |
\*---------------------------------------------------------------------------*/
FoamFile
{
    version     2.0;
    format      ascii;
    arch        "LSB;label=32;scalar=64";
    class       surfaceScalarField;
    location    "3";
    object      phi;
}
// * * * * * * * * * * * * * * * * * * * * * * * * * * * * * * * * * * * * * //

dimensions      [0 3 -1 0 0 0 0];

oriented        oriented;

internalField   nonuniform List<scalar> 
127680
(
-2.66901464412e-07
-0.00592787746698
0.00592831539507
-7.40296439916e-07
-0.00603296394705
0.00603343734205
-1.33248816042e-06
-0.00611522797379
0.00611582016551
-1.98394351436e-06
-0.00620595399366
0.00620660544899
-2.66688233693e-06
-0.00629303657611
0.0062937195149
-3.42044360195e-06
-0.00638388832748
0.00638464188871
-4.20334482291e-06
-0.00647424747927
0.00647503038046
-5.04502873993e-06
-0.00656660070277
0.00656744238667
-5.92532179992e-06
-0.00665963094519
0.00666051123824
-6.85582647746e-06
-0.00675407461749
0.00675500512216
-7.82924941026e-06
-0.00684960599148
0.0068505794144
-8.84885012742e-06
-0.00694643314702
0.00694745274771
-9.91233059096e-06
-0.00704451032754
0.00704557380798
-1.1020146937e-05
-0.00714391242205
0.00714502023838
-1.21714669755e-05
-0.00724466359779
0.00724581491782
-1.336604055e-05
-0.00734681287109
0.00734800744467
-1.46033600937e-05
-0.00745040212073
0.0074516394403
-1.58830068511e-05
-0.00755547919719
0.00755675884397
-1.7204527876e-05
-0.00766209279734
0.00766341431839
-1.85674869488e-05
-0.00777029446947
0.00777165742856
-1.99714324542e-05
-0.00788013791645
0.00788154186196
-2.14159234255e-05
-0.00799167929463
0.0079931237856
-2.29005006538e-05
-0.00810497713937
0.0081064617166
-2.44247274871e-05
-0.00822009243987
0.00822161666671
-2.59881693424e-05
-0.00833708862731
0.00833865206916
-2.75903857762e-05
-0.00845603164864
0.00845763386506
-2.92309699153e-05
-0.00857698993499
0.00857863051912
-3.09095133075e-05
-0.00870003448038
0.00870171302375
-3.26256246242e-05
-0.00882523881095
0.00882695492225
-3.43789424812e-05
-0.00895267904068
0.00895443235852
-3.61691119308e-05
-0.00908243387695
0.0090842240464
-3.79958276548e-05
-0.00921458463676
0.0092164113525
-3.98587859924e-05
-0.00934921525905
0.00935107821742
-4.17577369343e-05
-0.00948641233197
0.00948831128294
-4.36924513998e-05
-0.00962626510207
0.00962819981656
-4.56627381588e-05
-0.00976886548494
0.00977083577172
-4.76684460334e-05
-0.00991430808157
0.00991631378947
-4.9709469884e-05
-0.0100626901717
0.0100647311956
-5.17857328348e-05
-0.0102141117748
0.0102161880377
-5.38972213211e-05
-0.0103686756051
0.0103707870936
-5.60439526185e-05
-0.0105264871218
0.0105286338531
-5.82260036568e-05
-0.0106876545175
0.0106898365685
-6.04434889993e-05
-0.0108522887518
0.0108545062371
-6.26965835085e-05
-0.0110205035587
0.0110227566532
-6.49854955883e-05
-0.0111924154417
0.0111947043538
-6.73105127019e-05
-0.0113681437042
0.0113704687213
-6.96719508173e-05
-0.0115478104812
0.0115501719193
-7.20701816205e-05
-0.0117315407194
0.0117339389502
-7.45056366919e-05
-0.011919462223
0.0119218976781
-7.69787926685e-05
-0.012111705666
0.012114178822
-7.94901796074e-05
-0.0123084045995
0.0123109159864
-8.20403761257e-05
-0.0125096955057
0.0125122457023
-8.46300247227e-05
-0.012715717784
0.0127183074326
-8.72597972303e-05
-0.0129266138217
0.0129292435942
-8.99304362814e-05
-0.0131425289678
0.0131451996069
-9.264272773e-05
-0.0133636116271
0.0133663239185
-9.53975000108e-05
-0.0135900132469
0.0135927680192
-9.81956358793e-05
-0.0138218883718
0.0138246865077
-0.000101038062169
-0.0140593946798
0.014062237106
-0.000103925764814
-0.0143026930226
0.0143055807252
-0.000106859763574
-0.0145519474813
0.01455488148
-0.000109841130834
-0.014807325393
0.0148103067603
-0.000112870986331
-0.0150689974171
0.0150720272726
-0.000115950496334
-0.015337137588
0.015340217098
-0.000119080860311
-0.0156119233693
0.0156150537333
-0.000122263345117
-0.0158935356958
0.0158967181806
-0.000125499245064
-0.0161821590755
0.0161853949754
-0.000128789912535
-0.0164779816188
0.0164812722863
-0.000132136733092
-0.0167811951271
0.0167845419476
-0.00013554114007
-0.0170919951651
0.017095399572
-0.000139004621749
-0.0174105811243
0.017414044606
-0.000142528701582
-0.017737156322
0.0177406804018
-0.000146114952638
-0.0180719280656
0.0180755143167
-0.000149764996611
-0.0184151077568
0.0184187578007
-0.000153480495617
-0.0187669109765
0.0187706264755
-0.000157263159385
-0.0191275575611
0.0191313402248
-0.000161114748557
-0.0194972717343
0.0195011233235
-0.000165037070278
-0.019876282178
0.0198802044998
-0.000169031981127
-0.0202648221579
0.0202688170688
-0.000173101382908
-0.0206631296215
0.0206671990233
-0.000177247229871
-0.0210714473181
0.0210755931651
-0.00018147152479
-0.0214900229021
0.021494247197
-0.000185776325701
-0.0219191090734
0.0219234138743
-0.000190163737914
-0.0223589636925
0.0223633511047
-0.000194635913691
-0.0228098498998
0.0228143220756
-0.000199195081059
-0.023272036258
0.0232765954254
-0.000203843492956
-0.0237457969019
0.0237504453138
-0.000208583473873
-0.0242314116416
0.0242361516226
-0.000213417408351
-0.0247291661426
0.0247340000771
-0.000218347729843
-0.0252393520586
0.0252442823801
-0.000223376934916
-0.025762267187
0.0257672963921
-0.000228507575922
-0.0262982156285
0.0263033462696
-0.000233742271342
-0.0268475079363
0.0268527426318
-0.000239083691173
-0.0274104613038
0.0274158027237
-0.000244534581442
-0.0279873997142
0.0279928506045
-0.00025009773927
-0.0285786541231
0.028584217281
-0.000255776044407
-0.0291845626299
0.0291902409351
-0.000261572423703
-0.0298054706842
0.0298112670635
-0.000267489882563
-0.0304417312438
0.0304476487026
-0.000273531501298
-0.0310937049712
0.0310997465899
-0.000279700423892
-0.0317617604625
0.0317679293851
-0.000285999870173
-0.0324462744142
0.0324525738605
-0.000292433126143
-0.0331476318218
0.0331540650777
-0.000299003562014
-0.0338662262673
0.0338727967032
-0.000305714637469
-0.0346024600265
0.0346091711019
-0.000312567838102
-0.0353562533174
0.0353631156943
-0.000319560877362
-0.0361266117173
0.0361336401792
-0.000326692827782
-0.0369128304839
0.036920027309
-0.00033396252827
-0.0377149165167
0.0377222837708
-0.000341368632766
-0.0385328590023
0.0385403988404
-0.000348909732545
-0.0393666128815
0.039374327691
-0.000356583924854
-0.0402160959289
0.0402239879194
-0.000364388912925
-0.0410811857746
0.0410892571014
-0.000372321813325
-0.041961716441
0.0419699690368
-0.000380379560425
-0.0428574736205
0.0428659096259
-0.00038855856388
-0.0437681886825
0.0437768101306
-0.000396855380335
-0.0446935374144
0.0447023469323
-0.000405265227354
-0.0456331324713
0.0456421318241
-0.000413783098549
-0.0465865221874
0.046595713426
-0.000422402953068
-0.0475531789997
0.0475625636842
-0.000431119331083
-0.0485324969065
0.0485420777579
-0.000439924276923
-0.0495237861319
0.0495335639919
-0.000448810743082
-0.0505262653851
0.0505362426605
-0.000457769027226
-0.0515390573052
0.0515492344447
-0.000466790269509
-0.0525611731801
0.052571552215
-0.00047586324196
-0.0535915144805
0.0536020958578
-0.000484975728416
-0.0546288600999
0.0546396441082
-0.000494116233486
-0.055671861204
0.0556828497294
-0.000503269676479
-0.0567190287705
0.0567302210389
-0.000512421760627
-0.0577687233992
0.0577801203944
-0.000521555252519
-0.0588191522019
0.0588307529954
-0.000530652687826
-0.0598683536367
0.0598801581435
-0.000539693842553
-0.060914188194
0.0609261946944
-0.000548658100523
-0.0619543291169
0.061966536674
-0.000557521980762
-0.0629862531993
0.0629986592349
-0.000566260803565
-0.0640072267682
0.0640198287768
-0.000574848088159
-0.065014297245
0.0650270922358
-0.000583255178222
-0.0660042826618
0.0660172668266
-0.000591451975652
-0.0669737614235
0.066986930907
-0.000599406573273
-0.0679190614993
0.0679324120644
-0.000607086368378
-0.0688362494734
0.0688497776397
-0.000614445793821
-0.0697211299128
0.0697348207043
-0.000621448231204
-0.0705692198218
0.0705830686871
-0.000628054264599
-0.0713757582958
0.0713897593567
-0.000634219291443
-0.0721356962483
0.072149839891
-0.000639897643057
-0.0728436894658
0.0728579664252
-0.000645036950652
-0.0734941013156
0.0735084969857
-0.000649588309298
-0.0740809948674
0.0740954993868
-0.000653496904063
-0.0745981477071
0.0746127464809
-0.000656706545711
-0.0750390497121
0.0750537278127
-0.000659158825626
-0.0753969184561
0.0754116596099
-0.000660793142413
-0.0756647131239
0.0756794995304
-0.000661546903634
-0.0758351559701
0.0758499682523
-0.00066135642049
-0.0759007572323
0.0759155750302
-0.00066015668002
-0.0758538507111
0.0758686520984
-0.000657882057669
-0.075686633816
0.0757013955939
-0.000654464866234
-0.0753912195569
0.0754059153164
-0.000649840451608
-0.0749596922648
0.0749742969198
-0.000643942407871
-0.0743841847766
0.0743986691317
-0.000636707522838
-0.0736569554483
0.073671290406
-0.00062807449181
-0.0727704885502
0.0727846429857
-0.000617985459125
-0.0717176037828
0.0717315451386
-0.00060638759991
-0.0704915843837
0.070505279186
-0.000593234275862
-0.0690863223839
0.0690997362088
-0.000578485594749
-0.067496482733
0.0675095794426
-0.000562110356304
-0.0657176875611
0.0657304297848
-0.000544089276917
-0.0637467204509
0.0637590711987
-0.00052441508232
-0.0615817592896
0.0615936802811
-0.000503096859556
-0.0592226256133
0.0592340797118
-0.000480160550938
-0.056671064701
0.0566820143315
-0.000455652765169
-0.0539310477171
0.05394145645
-0.000429643228098
-0.0510091001577
0.0510189327836
-0.000402227887156
-0.0479146561346
0.0479238792565
-0.000373531711935
-0.0446604353443
0.044669017547
-0.000343713339478
-0.0412628423501
0.0412707561169
-0.000312968072235
-0.0377423869298
0.0377496088488
-0.000281530929228
-0.0341241194347
0.0341306304343
-0.000249681522915
-0.0304380737526
0.0304438611928
-0.000217747007558
-0.0267197191103
0.0267247770397
-0.000186105768516
-0.0230104025788
0.0230147329062
-0.000155190914904
-0.019357778038
0.019361391779
-0.000125493635429
-0.0158162059248
0.0158191246936
-9.75664521438e-05
-0.0124471096836
0.0124493676029
-7.20243209804e-05
-0.00931927063187
0.00932091476017
-4.95464221511e-05
-0.00650903759359
0.00651012989484
-3.08764009674e-05
-0.00410042824965
0.00410104706546
-1.68207492176e-05
-0.00218509578568
0.00218533672494
-8.24704304443e-06
-0.000862123999622
0.000862102210532
-5.9185393661e-06
-0.000228256255512
0.000228106106987
-5.7528726675e-06
-9.13056265194e-05
9.11399598038e-05
-5.60392037085e-06
-8.25079895943e-05
8.23590372721e-05
-5.4713868508e-06
-7.37402986207e-05
7.36077650713e-05
-5.3551687885e-06
-6.49983399377e-05
6.48821218317e-05
-5.25466874676e-06
-5.62782608221e-05
5.61777607274e-05
-5.17006093455e-06
-4.75755677063e-05
4.7490959853e-05
-5.10112413891e-06
-3.88863236512e-05
3.88173868294e-05
-5.04775872629e-06
-3.02062792636e-05
3.01529138441e-05
-5.00953473083e-06
-2.15312758843e-05
2.14930519009e-05
-4.98673494062e-06
-1.28562736202e-05
1.28334738474e-05
-4.15990819859e-06
4.15253170358e-06
-2.21853865842e-06
-0.00592514591444
-5.03743378408e-06
-0.00603014505199
-7.99750144413e-06
-0.00611226790614
-1.1055455527e-05
-0.00620289603955
-1.41757148406e-05
-0.00628991631674
-1.74009434904e-05
-0.00638066309876
-2.06899030044e-05
-0.00647095851968
-2.40723275423e-05
-0.00656321827815
-2.75286871275e-05
-0.00665617458553
-3.10708592305e-05
-0.00675053244532
-3.46921880896e-05
-0.00684598466256
-3.83962991129e-05
-0.00694272903594
-4.21815018391e-05
-0.00704072512477
-4.60487416563e-05
-0.00714004518221
-4.99977624942e-05
-0.00724071457694
-5.40288527542e-05
-0.00734278178084
-5.81420790418e-05
-0.00744628889446
-6.23376268559e-05
-0.00755128364939
-6.66156602237e-05
-0.00765781476399
-7.09763735371e-05
-0.00776593375617
-7.54199597824e-05
-0.00787569433021
-7.99466457486e-05
-0.00798715260867
-8.4556690562e-05
-0.00810036709457
-8.92503768193e-05
-0.00821539875364
-9.40279972833e-05
-0.00833231100686
-9.88899154485e-05
-0.00845116973049
-0.000103836493096
-0.00857204335735
-0.000108868161114
-0.00869500281236
-0.000113985390925
-0.00882012158114
-0.000119188686932
-0.00894747574467
-0.000124478628675
-0.0090771439352
-0.000129855837981
-0.00920920742744
-0.000135321001905
-0.00934375009511
-0.00014087485966
-0.00948085847419
-0.000146518234423
-0.00962062172727
-0.000152252015084
-0.00976313170424
-0.000158077167952
-0.00990848292866
-0.000163994724258
-0.0100567726153
-0.000170005809579
-0.0102081006894
-0.000176111626422
-0.0103625697883
-0.000182313469249
-0.010520285279
-0.000188612701496
-0.0106813552852
-0.000195010803012
-0.0108458906503
-0.000201509333103
-0.0110140050286
-0.000208109953038
-0.0111858148217
-0.000214814399795
-0.0113614392574
-0.000221624534401
-0.0115410003465
-0.000228542296865
-0.0117246229569
-0.000235569746286
-0.0119124347736
-0.000242709028167
-0.0121045663842
-0.000249962395187
-0.0123011512325
-0.000257332211521
-0.0125023256894
-0.000264820925298
-0.0127082290703
-0.000272431117819
-0.0129190036292
-0.00028016545228
-0.0131347946334
-0.00028802670598
-0.0133557503734
-0.000296017768294
-0.0135820221846
-0.000304141639603
-0.0138137645005
-0.000312401413035
-0.0140511349064
-0.000320800305471
-0.0142942941302
-0.00032934163638
-0.0145434061504
-0.000338028850284
-0.0147986381791
-0.000346865478299
-0.0150601607891
-0.000355855185314
-0.015328147881
-0.000365001749047
-0.0156027768055
-0.000374309054202
-0.0158842283906
-0.000383781102522
-0.0161726870272
-0.000393422015679
-0.0164683407057
-0.000403236038112
-0.0167713811047
-0.000413227531867
-0.0170820036713
-0.000423400975377
-0.0174004076808
-0.000433760984999
-0.0177267963124
-0.00044431228326
-0.0180613767674
-0.000455059732536
-0.0184043603075
-0.000466008330318
-0.0187559623788
-0.000477163189179
-0.0191164027022
-0.000488529569183
-0.0194859053543
-0.000500112858261
-0.0198646988889
-0.000511918586605
-0.0202530164295
-0.000523952418566
-0.0206510957895
-0.000536220173708
-0.0210591795629
-0.000548727807275
-0.0214775152685
-0.000561481420582
-0.0219063554601
-0.000574487275031
-0.0223459578381
-0.000587751784088
-0.0227965853908
-0.000601281508847
-0.0232585065333
-0.000615083186107
-0.0237319952246
-0.000629163705999
-0.0242173311217
-0.000643530118726
-0.0247147997299
-0.000658189658972
-0.0252246925183
-0.000673149727122
-0.0257473071188
-0.000688417895775
-0.0262829474598
-0.000704001927008
-0.0268319239051
-0.000719909757599
-0.0273945534732
-0.000736149523159
-0.0279711599486
-0.000752729546721
-0.0285620740996
-0.000769658334767
-0.0291676338419
-0.000786944611928
-0.029788184407
-0.000804597302852
-0.0304240785529
-0.000822625528205
-0.0310756767458
-0.000841038635136
-0.0317433473556
-0.000859846187822
-0.0324274668616
-0.000879057965996
-0.0331284200436
-0.000898683984785
-0.0338466002485
-0.000918734485963
-0.0345824095253
-0.000939199366839
-0.0353357609109
-0.000960048587153
-0.0361056562428
-0.000981280962353
-0.0368914035096
-0.00100289490026
-0.0376930099556
-0.00102488828998
-0.0385104644631
-0.00104725827838
-0.039343721831
-0.00107000056678
-0.0401927003298
-0.00109310982526
-0.0410572776025
-0.00111657978529
-0.041937287518
-0.00114040300463
-0.0428325157724
-0.00116457019098
-0.0437426943327
-0.00118907148961
-0.0446674982092
-0.00121389418329
-0.0456065414877
-0.00123902496389
-0.0465593715644
-0.00126444773638
-0.047525462032
-0.00129014491438
-0.0485042066419
-0.00131609560141
-0.0494949170772
-0.00134227821403
-0.0504968107655
-0.0013686679143
-0.0515090115087
-0.00139523665656
-0.0525305315836
-0.0014219528091
-0.053560273695
-0.00144878202979
-0.054597016958
-0.00147568830357
-0.0556394115814
-0.00150263037456
-0.0566859710092
-0.00152956290345
-0.0577350570025
-0.00155643739797
-0.0587848767537
-0.00158320045576
-0.0598334704079
-0.00160979391534
-0.0608786998404
-0.00163615522701
-0.0619182391584
-0.00166221613927
-0.0629495671866
-0.0016879037053
-0.0639699511343
-0.00171313929479
-0.0649764401587
-0.00173783711944
-0.0659658553776
-0.00176190672628
-0.0669347756755
-0.00178525082084
-0.0678795315825
-0.00180776435029
-0.0687961930852
-0.00182933966018
-0.0696805629456
-0.00184985695392
-0.0705281658836
-0.00186919094386
-0.0713342420741
-0.00188720893269
-0.0720937454878
-0.00190377157383
-0.0728013343163
-0.00191873311165
-0.0734513742588
-0.00193193808253
-0.0740379342512
-0.00194322586233
-0.0745547935116
-0.0019524283987
-0.0749954462203
-0.00195937057899
-0.0753531143916
-0.0019638716193
-0.0756207608847
-0.00196574584891
-0.0757911115975
-0.00196480143737
-0.0758566825865
-0.00196084488714
-0.0758098100468
-0.00195367822356
-0.0756426978469
-0.00194310410042
-0.0753474618099
-0.00192892419259
-0.074916192377
-0.00191094314063
-0.0743410264901
-0.00188897125052
-0.073614226126
-0.00186282516991
-0.0727282810161
-0.00183233265581
-0.0716760143958
-0.00179733509063
-0.0704507137152
-0.00175769194142
-0.0690462743282
-0.00171328498016
-0.067457364257
-0.00166402364658
-0.0656796077338
-0.00160984899602
-0.0637097913293
-0.00155074223221
-0.0615460926754
-0.00148672875519
-0.0591883347611
-0.00141788733418
-0.0566382613682
-0.00134435803909
-0.053899840917
-0.0012663495179
-0.050979596008
-0.00118414981296
-0.0478869545756
-0.00109813601589
-0.0446346283793
-0.00100878285481
-0.0412390136398
-0.000916675121907
-0.0377206077412
-0.00082251894141
-0.034104445817
-0.000727151414878
-0.0304205452491
-0.000631553163045
-0.0267043542895
-0.00053685872238
-0.0229971961879
-0.000444367798777
-0.0193466964893
-0.000355553513758
-0.0158071846388
-0.000272070616823
-0.0124400489096
-0.000195762509144
-0.00931403044228
-0.000128665352626
-0.00650543323643
-7.30072775312e-05
-0.00409822724967
-3.12073834794e-05
-0.00218401141864
-5.86570580357e-06
-0.000861813222985
7.30591994257e-07
-0.000228318327733
8.61058078395e-07
-9.14360926457e-05
9.78287381677e-07
-8.26252189537e-05
1.08247214184e-06
-7.38444834577e-05
1.17389323867e-06
-6.50897611148e-05
1.25261081116e-06
-5.63569784566e-05
1.31893307436e-06
-4.76418900089e-05
1.37298060108e-06
-3.89403711849e-05
1.41489708996e-06
-3.02481957284e-05
1.44466993257e-06
-2.15610486979e-05
1.46242181811e-06
-1.28740254899e-05
-4.16569187024e-06
-4.17321875858e-06
-0.00592011789218
-9.33479694765e-06
-0.00602498347388
-1.4664548059e-05
-0.00610693815513
-2.01272918351e-05
-0.00619743329587
-2.56842627268e-05
-0.00628435934594
-3.13804041175e-05
-0.00637496695744
-3.71742834331e-05
-0.00646516464042
-4.30963063814e-05
-0.00655729625525
-4.91275078907e-05
-0.00665014338407
-5.52800508024e-05
-0.00674437990244
-6.15479502726e-05
-0.00683971676311
-6.79352049215e-05
-0.00693634178128
-7.44407169352e-05
-0.00703421961273
-8.10659296059e-05
-0.00713341996949
-8.78111310304e-05
-0.00723396937546
-9.4677166807e-05
-0.00733591574501
-0.000101664690453
-0.00743930137077
-0.000108774489199
-0.00754417385062
-0.000116007331891
-0.00765058192128
-0.000123364032026
-0.00775857705603
-0.000130845462877
-0.00786821289936
-0.000138452526298
-0.00797954554526
-0.000146186174302
-0.00809263344658
-0.000154047401065
-0.0082075375269
-0.000162037271132
-0.00832432113683
-0.000170156894459
-0.0084430501072
-0.000178407455959
-0.00856379279588
-0.000186790207096
-0.00868662006123
-0.000195306457615
-0.00881160533061
-0.000203957624251
-0.00893882457801
-0.000212745171663
-0.00906835638777
-0.00022167068102
-0.00920028191808
-0.000230735806645
-0.00933468496949
-0.000239942317424
-0.00947165196342
-0.00024929206474
-0.00961127197995
-0.000258787018642
-0.00975363675031
-0.000268429249753
-0.0098988406975
-0.000278220950568
-0.0100469809145
-0.000288164426633
-0.0101981572133
-0.000298262107139
-0.0103524721078
-0.000308516546129
-0.01051003084
-0.000318930436221
-0.0106709413952
-0.000329506586504
-0.0108353145
-0.000340247946113
-0.011003263669
-0.000351157612128
-0.0111749051557
-0.000362238812251
-0.0113503580572
-0.000373494922544
-0.0115297442362
-0.000384929474394
-0.011713188405
-0.000396546119493
-0.0119008181285
-0.000408348699183
-0.0120927638045
-0.00042034117702
-0.0122891587546
-0.000432527690122
-0.0124901391763
-0.000444912526325
-0.012695844234
-0.000457500130781
-0.0129064160247
-0.000470295109479
-0.0131219996547
-0.000483302248184
-0.0133427432347
-0.000496526472264
-0.0135687979605
-0.000509972891646
-0.0138003180811
-0.000523646782908
-0.0140374610151
-0.00053755358661
-0.0142803873264
-0.000551698929713
-0.0145292608073
-0.000566088596045
-0.0147842485127
-0.000580728564788
-0.0150455208203
-0.000595624984566
-0.0153132514612
-0.000610784195567
-0.0155876175946
-0.000626212703599
-0.0158687998826
-0.00064191722932
-0.0161569825015
-0.000657904660386
-0.0164523532746
-0.000674182089146
-0.0167551036759
-0.000690756798524
-0.017065428962
-0.000707636271663
-0.0173835282077
-0.000724828194699
-0.0177096043894
-0.000742340463347
-0.0180438644987
-0.000760181169997
-0.0183865196009
-0.000778358632116
-0.0187377849166
-0.000796881379328
-0.019097879955
-0.000815758156115
-0.0194670285775
-0.000834997935756
-0.0198454591092
-0.000854609911553
-0.0202334044537
-0.000874603528576
-0.0206311021724
-0.000894988449012
-0.0210387946425
-0.000915774577101
-0.0214567291404
-0.000936972076425
-0.0218851579608
-0.000958591346704
-0.0223243385678
-0.000980643051634
-0.0227745336858
-0.00100313811403
-0.0232360114708
-0.00102608771496
-0.0237090456236
-0.00104950331445
-0.0241939155222
-0.00107339665385
-0.0246909063905
-0.00109777973676
-0.0252003094354
-0.0011226648745
-0.025722421981
-0.00114806466369
-0.0262575476706
-0.00117399199977
-0.026805996569
-0.00120046009011
-0.0273680853828
-0.00122748244569
-0.027944137593
-0.00125507290499
-0.0285344836403
-0.00128324562966
-0.0291394611172
-0.00131201511434
-0.0297594149223
-0.00134139619265
-0.0303946974746
-0.00137140404669
-0.0310456688918
-0.00140205421639
-0.0317126971859
-0.00143336260327
-0.0323961584747
-0.00146534547032
-0.0330964371766
-0.00149801947391
-0.033813926245
-0.00153140165895
-0.0345490273402
-0.0015654703218
-0.0353016463839
-0.00160016762526
-0.0360707818945
-0.00163549211145
-0.0368557547749
-0.00167144192427
-0.0376565725629
-0.00170801413117
-0.0384732238458
-0.00174520420135
-0.0393056635471
-0.00178300533092
-0.040153810629
-0.00182140953355
-0.0410175422194
-0.00186040722355
-0.0418966919671
-0.00189998672369
-0.0427910457102
-0.00194013294774
-0.0437003367381
-0.00198082887381
-0.0446242397644
-0.00202205474018
-0.0455623692289
-0.00206378832329
-0.0465142724425
-0.00210600406748
-0.0474794236119
-0.00214867195263
-0.0484572180565
-0.00219175837077
-0.049446967963
-0.00223522665521
-0.0504478905375
-0.00227903675325
-0.0514591094832
-0.00232314198558
-0.0524796400056
-0.00236749057094
-0.0535083859927
-0.00241202612945
-0.0545441270119
-0.0024566877067
-0.055585513464
-0.00250140719318
-0.0566310613254
-0.0025461101329
-0.0576791338342
-0.0025907144154
-0.0587279407186
-0.00263513249025
-0.0597755221931
-0.00267926756992
-0.0608197437476
-0.00272301508777
-0.0618582813966
-0.00276626265885
-0.0628886156661
-0.00280888864758
-0.0639080166629
-0.00285076168872
-0.0649135366964
-0.0028917408069
-0.065901999708
-0.00293167417073
-0.0668699884659
-0.00297039985288
-0.0678138364633
-0.00300774486842
-0.0687296174864
-0.00304352556312
-0.0696131376241
-0.0030775457379
-0.070459926765
-0.0031095968878
-0.07126523004
-0.00313945900963
-0.0720240056651
-0.00316689971454
-0.0727309171458
-0.00319167466162
-0.0733803353404
-0.00321352678386
-0.0739663355091
-0.00323218781081
-0.0744827021946
-0.00324737741249
-0.0749229364287
-0.00325880556816
-0.0752802655525
-0.00326617086355
-0.0755476604906
-0.00326916266924
-0.0757178542843
-0.0032674639428
-0.075783368835
-0.0032607500452
-0.0757365491471
-0.00324869347083
-0.075569605257
-0.00323096436737
-0.0752746610703
-0.00320723243468
-0.0748438160249
-0.00317717379784
-0.0742692124192
-0.00314047080296
-0.0735431214824
-0.00309681985907
-0.0726580385488
-0.00304593338261
-0.0716067952475
-0.00298754760273
-0.0703826849379
-0.00292142904504
-0.0689796083476
-0.00284738073887
-0.0673922392801
-0.00276525194632
-0.0656162053384
-0.00267494510871
-0.0636482975716
-0.00257642728661
-0.0614866954646
-0.00246974297556
-0.059131220633
-0.00235502362843
-0.056583616333
-0.00223250180865
-0.0538478474432
-0.00210252645447
-0.0509304296313
-0.00196557731299
-0.0478407820212
-0.00182228081293
-0.0445916048419
-0.0016734297666
-0.0411992767164
-0.00151999825855
-0.0376842764979
-0.00136316156583
-0.0340716149397
-0.00120431514999
-0.0303912799753
-0.00104509253584
-0.0266786859813
-0.00088738487756
-0.0229751153471
-0.000733355740669
-0.0193281492054
-0.000585459793355
-0.0157920632097
-0.000446454422898
-0.0124281869474
-0.000319411346465
-0.00930519462166
-0.000207721136627
-0.00649931787577
-0.000115097924932
-0.00409444345424
-4.55701223358e-05
-0.00218208382268
-3.47132710101e-06
-0.000861168916009
7.38991966528e-06
-0.000228291997656
7.4849640647e-06
-9.15311370889e-05
7.57021370845e-06
-8.27104686377e-05
7.64585938628e-06
-7.39201291774e-05
7.71209985296e-06
-6.5156001623e-05
7.76908096245e-06
-5.64139596008e-05
7.81700417533e-06
-4.76898132305e-05
7.85600898156e-06
-3.89793759675e-05
7.88620992283e-06
-3.02783966489e-05
7.90765214906e-06
-2.1582490926e-05
7.92046786141e-06
-1.28868412126e-05
-4.16985908824e-06
-6.12701352041e-06
-0.00591279461516
-1.36307194316e-05
-0.00601747976786
-2.13283940864e-05
-0.00609924048036
-2.91942870795e-05
-0.00618956740276
-3.71864561935e-05
-0.00627636717671
-4.53514293784e-05
-0.00636680198414
-5.36485325976e-05
-0.00645686753709
-6.21080191555e-05
-0.00654883676859
-7.07120412018e-05
-0.00664153936193
-7.94727503304e-05
-0.00673561919324
-8.83849664969e-05
-0.0068308045469
-9.7453036262e-05
-0.00692727371151
-0.000106676451837
-0.00702499619718
-0.000116057143698
-0.00712403927766
-0.000125595971759
-0.00722443054743
-0.000135294342988
-0.0073262173738
-0.000145153491905
-0.00742944222186
-0.000155174789786
-0.00753415255274
-0.000165359621941
-0.00764039708913
-0.000175709455589
-0.00774822722239
-0.000186225807848
-0.00785769654712
-0.00019691026437
-0.00796886108876
-0.000207764462077
-0.00808177924889
-0.000218790135068
-0.00819651185392
-0.000229989095075
-0.00831312217684
-0.000241363223005
-0.00843167597928
-0.000252914502638
-0.00855224151626
-0.000264645007243
-0.00867488955665
-0.00027655691736
-0.0087996934205
-0.000288652508189
-0.00892672898718
-0.000300934187062
-0.00905607470888
-0.000313404455153
-0.00918781164996
-0.000326065960341
-0.00932202346428
-0.000338921468619
-0.00945879645513
-0.000351973880989
-0.00959821956758
-0.0003652262357
-0.0097403843956
-0.000378681723767
-0.00988538520943
-0.000392343685685
-0.0100333189525
-0.000406215617574
-0.0101842852814
-0.000420301167216
-0.0103383865581
-0.000434604158865
-0.0104957278483
-0.000449128583602
-0.0106564169704
-0.000463878599486
-0.0108205644841
-0.000478858560145
-0.0109882837083
-0.000494072973141
-0.0111596907427
-0.000509526562577
-0.0113349044678
-0.000525224228633
-0.0115140465702
-0.000541171051557
-0.0116972415821
-0.000557372343268
-0.0118846168368
-0.000573833580728
-0.012076302567
-0.000590560473504
-0.0122724318619
-0.000607558906987
-0.0124731407428
-0.00062483501443
-0.0126785681266
-0.000642395110265
-0.0128888559289
-0.000660245751624
-0.0131041490133
-0.000678393686938
-0.0133245952993
-0.000696845920691
-0.0135503457267
-0.000715609657228
-0.0137815543446
-0.000734692340364
-0.0140183783319
-0.000754101654478
-0.0142609780123
-0.000773845502378
-0.0145095169593
-0.000793932040787
-0.0147641619743
-0.00081436966961
-0.0150250831915
-0.000835167024912
-0.0152924541059
-0.000856332997107
-0.0155664516224
-0.000877876745188
-0.0158472561346
-0.000899807659367
-0.0161350515873
-0.000922135417395
-0.0164300255166
-0.000944869951069
-0.0167323691423
-0.000968021463834
-0.0170422774492
-0.00099160044053
-0.017359949231
-0.00101561763433
-0.0176855871956
-0.00104008409912
-0.0180193980339
-0.00106501116817
-0.0183615925318
-0.0010904104713
-0.0187123856135
-0.00111629394095
-0.0190719964853
-0.00114267381814
-0.0194406487003
-0.00116956265045
-0.0198185702769
-0.00119697330875
-0.0202059937954
-0.00122491897822
-0.020603156503
-0.00125341317924
-0.0210103004414
-0.0012824697804
-0.0214276725392
-0.00131210296744
-0.0218555247738
-0.00134232730375
-0.0222941142315
-0.00137315768525
-0.0227437033043
-0.0014046093827
-0.0232045597734
-0.00143669804363
-0.0236769569627
-0.00146943968003
-0.0241611738858
-0.00150285070292
-0.0246574953675
-0.0015369479102
-0.0251662122281
-0.0015717484996
-0.0256876213917
-0.00160727009226
-0.026222026078
-0.00164353071361
-0.0267697359476
-0.00168054882747
-0.0273310672689
-0.00171834333111
-0.0279063430894
-0.00175693356828
-0.0284958934031
-0.00179633934223
-0.0291000553432
-0.00183658091426
-0.0297191733503
-0.00187767903054
-0.0303535993584
-0.0019196549208
-0.0310036930016
-0.00196253030772
-0.031669821799
-0.00200632742422
-0.0323523613582
-0.00205106902768
-0.0330516955732
-0.00209677840124
-0.0337682168714
-0.00214347938169
-0.0345023263597
-0.00219113868982
-0.0352539228908
-0.00223967068524
-0.0360220021318
-0.00228907360381
-0.0368058980834
-0.00233934532928
-0.0376056184887
-0.00239048193978
-0.0384211518214
-0.00244247729569
-0.0392524531607
-0.00249532243079
-0.0400994420817
-0.00254900681133
-0.0409619949047
-0.00260351723859
-0.041839945397
-0.00265883748144
-0.0427330797011
-0.00271494705926
-0.0436411324351
-0.00277182196959
-0.0445637787109
-0.00282943481254
-0.0455006330271
-0.00288775518944
-0.0464512421279
-0.00294674681406
-0.0474150823044
-0.00300636855791
-0.0483915496646
-0.00306657400293
-0.0493799573683
-0.00312731151824
-0.0503795232441