/*--------------------------------*- C++ -*----------------------------------*\
| =========                 |                                                 |
| \\      /  F ield         | OpenFOAM: The Open Source CFD Toolbox           |
|  \\    /   O peration     | Version:  2412                                  |
|   \\  /    A nd           | Website:  www.openfoam.com                      |
|    \\/     M anipulation  |                                                 |
\*---------------------------------------------------------------------------*/
FoamFile
{
    version     2.0;
    format      ascii;
    arch        "LSB;label=32;scalar=64";
    class       volScalarField;
    location    "3";
    object      rAU;
}
// * * * * * * * * * * * * * * * * * * * * * * * * * * * * * * * * * * * * * //

dimensions      [-1 3 1 0 0 0 0];

internalField   nonuniform List<scalar> 
64000
(
0.0104098770728
0.0104623374507
0.0105291882885
0.0105919402822
0.0106575406823
0.0107217856205
0.0107870356525
0.0108519229323
0.0109171444138
0.0109823040312
0.0110475608106
0.0111128011711
0.0111780394171
0.0112432313769
0.0113083580111
0.0113733894603
0.0114383000738
0.0115030625136
0.0115676501165
0.0116320361143
0.0116961940065
0.0117600975237
0.0118237207293
0.01188703807
0.0119500244361
0.0120126552257
0.0120749063961
0.0121367545168
0.0121981768226
0.0122591512566
0.0123196565163
0.0123796720909
0.0124391782992
0.0124981563231
0.0125565882338
0.0126144570196
0.0126717466049
0.0127284418672
0.0127845286522
0.0128399937812
0.0128948250574
0.0129490112691
0.0130025421867
0.0130554085587
0.0131076021035
0.0131591154965
0.0132099423553
0.0132600772261
0.0133095155594
0.0133582536898
0.0134062888123
0.0134536189545
0.0135002429489
0.013546160404
0.013591371673
0.0136358778201
0.0136796805904
0.0137227823744
0.0137651861748
0.0138068955714
0.0138479146871
0.013888248154
0.0139279010784
0.0139668790078
0.0140051878975
0.0140428340779
0.0140798242222
0.0141161653162
0.0141518646278
0.014186929678
0.0142213682124
0.014255188175
0.014288397682
0.0143210049977
0.0143530185106
0.0143844467119
0.0144152981737
0.0144455815301
0.0144753054587
0.0145044786632
0.0145331098576
0.0145612077508
0.0145887810333
0.0146158383643
0.0146423883603
0.0146684395842
0.0146940005359
0.0147190796439
0.0147436852568
0.014767825637
0.0147915089542
0.0148147432805
0.0148375365851
0.014859896731
0.0148818314709
0.0149033484447
0.0149244551774
0.0149451590771
0.0149654674341
0.0149853874192
0.0150049260842
0.015024090361
0.0150428870624
0.0150613228809
0.0150794043916
0.0150971478552
0.0151145881482
0.0151317522881
0.0151486476694
0.0151652812382
0.0151816598245
0.0151977901326
0.0152136787842
0.0152293322524
0.0152447568912
0.0152599589735
0.0152749446241
0.0152897198686
0.015304290587
0.0153186625976
0.0153328415839
0.0153468331249
0.0153606426645
0.0153742755287
0.0153877369661
0.0154010320807
0.0154141658626
0.0154271431376
0.0154399686402
0.0154526469709
0.0154651825714
0.0154775797413
0.0154898426432
0.0155019752698
0.0155139814452
0.0155258648264
0.0155376288827
0.0155492768878
0.0155608119027
0.0155722367716
0.0155835541104
0.015594766306
0.0156058754819
0.015616883461
0.0156277917821
0.0156386016714
0.0156493140286
0.015659929405
0.0156704479708
0.0156808695112
0.01569119339
0.0157014185323
0.0157115433949
0.0157215659446
0.0157314836279
0.0157412933478
0.0157509914371
0.0157605736299
0.0157700350336
0.0157793701046
0.015788572622
0.0157976356758
0.0158065516351
0.0158153121241
0.0158239080109
0.0158323293955
0.0158405656017
0.0158486051718
0.0158564358742
0.0158640447109
0.015871417938
0.0158785410938
0.015885399039
0.0158919760083
0.015898255679
0.0159042212501
0.015909855541
0.0159151411087
0.0159200603809
0.0159245958189
0.0159287300951
0.0159324462982
0.015935728163
0.0159385603258
0.0159409286079
0.0159428203232
0.0159442246126
0.015945132804
0.0159455444315
0.0159456309061
0.0159456383239
0.0159456451652
0.0159456514699
0.0159456572752
0.015945662616
0.0159456675245
0.015945672031
0.015945676164
0.01594567995
0.0159456804565
0.0104101473953
0.0104614589984
0.010527028285
0.0105885038528
0.0106528428779
0.0107158846177
0.0107799427247
0.010843688532
0.0109077922997
0.0109718745732
0.011036084678
0.011100314196
0.0111645746838
0.0112288231484
0.0112930398508
0.0113571950599
0.0114212628819
0.0114852158613
0.0115490271412
0.0116126697662
0.0116761170247
0.0117393424209
0.0118023197648
0.0118650232287
0.0119274274144
0.0119895074039
0.0120512388183
0.0121125978712
0.0121735614134
0.0122341069871
0.0122942128642
0.0123538580868
0.0124130225064
0.0124716868164
0.0125298325803
0.0125874422551
0.0126444992163
0.0127009877761
0.0127568931959
0.0128122016966
0.0128669004664
0.0129209776654
0.0129744224231
0.0130272248341
0.013079375953
0.013130867785
0.0131816932702
0.0132318462686
0.0132813215416
0.0133301147313
0.0133782223389
0.0134256416974
0.0134723709472
0.0135184090058
0.0135637555389
0.0136084109302
0.0136523762482
0.0136956532143
0.0137382441708
0.0137801520473
0.0138213803263
0.0138619330097
0.0139018145866
0.0139410300002
0.0139795846138
0.0140174841803
0.0140547348112
0.0140913429445
0.0141273153155
0.0141626589281
0.0141973810279
0.0142314890742
0.0142649907158
0.0142978937657
0.0143302061772
0.0143619360226
0.0143930914723
0.0144236807748
0.0144537122383
0.0144831942135
0.0145121350768
0.0145405432151
0.0145684270129
0.014595794838
0.01462265503
0.0146490158899
0.0146748856698
0.0147002725634
0.0147251846988
0.0147496301303
0.0147736168326
0.0147971526948
0.0148202455149
0.0148429029958
0.0148651327415
0.0148869422538
0.0149083389299
0.0149293300597
0.0149499228242
0.0149701242956
0.0149899414345
0.0150093810898
0.0150284499996
0.0150471547894
0.0150655019742
0.0150835056619
0.015101199701
0.0151186151025
0.0151357593059
0.0151526392497
0.0151692617607
0.0151856335514
0.0152017612324
0.0152176512863
0.015233310081
0.0152487439015
0.0152639589019
0.0152789611268
0.0152937564913
0.0153083508307
0.0153227498765
0.0153369592283
0.015350984386
0.0153648306928
0.0153785034463
0.0153920077894
0.0154053487593
0.015418531242
0.0154315599954
0.0154444396785
0.0154571747788
0.0154697696442
0.0154822284814
0.015494555336
0.0155067540725
0.0155188283965
0.0155307818208
0.0155426176597
0.0155543390244
0.0155659487989
0.0155774496455
0.0155888439474
0.0156001338597
0.0156113212521
0.0156224076833
0.0156333944094
0.0156442823323
0.0156550720182
0.0156657636411
0.0156763569821
0.015686851393
0.0156972457795
0.0157075385706
0.0157177276963
0.0157278105616
0.0157377840118
0.0157476443127
0.0157573871238
0.0157670074645
0.0157764996979
0.0157858574894
0.0157950737936
0.0158041408337
0.0158130500791
0.0158217922274
0.0158303571922
0.015838734098
0.0158469112719
0.0158548762516
0.0158626157958
0.0158701159028
0.0158773618414
0.0158843381944
0.0158910289093
0.0158974173645
0.0159034864556
0.0159092186937
0.0159145963272
0.0159196014781
0.0159242163035
0.0159284231832
0.0159322049269
0.0159355450097
0.0159384278312
0.0159408390041
0.0159427656651
0.0159441968171
0.0159451236917
0.0159455453067
0.0159456336667
0.0159456408155
0.0159456474217
0.0159456535218
0.0159456591499
0.0159456643379
0.0159456691158
0.0159456735115
0.0159456775511
0.0159456812595
0.0159456846655
0.0104118130612
0.0104619735763
0.0105262489222
0.0105864417149
0.0106495114666
0.01071134321
0.0107742029568
0.0108368010567
0.0108997811861
0.0109627801861
0.0110259378579
0.0110891507303
0.0111524276799
0.0112157267998
0.0112790276528
0.0113423005949
0.0114055194612
0.01146865665
0.0115316850932
0.0115945776333
0.011657307326
0.0117198474257
0.0117821714805
0.0118442533839
0.0119060674344
0.0119675883933
0.0120287915413
0.0120896527279
0.012150148426
0.0122102557733
0.012269952619
0.012329217564
0.0123880299953
0.0124463701216
0.0125042190029
0.0125615585763
0.0126183716785
0.0126746420643
0.0127303544214
0.0127854943828
0.012840048534
0.0128940044167
0.0129473505313
0.0130000763349
0.0130521722324
0.0131036295697
0.0131544406218
0.0132045985768
0.013254097522
0.0133029324214
0.0133510990947
0.0133985941954
0.0134454151831
0.0134915602981
0.0135370285326
0.013581819599
0.0136259339021
0.0136693725073
0.0137121371072
0.013754229991
0.0137956540106
0.0138364125487
0.0138765094863
0.0139159491701
0.0139547363808
0.0139928763025
0.0140303744906
0.0140672368419
0.014103469566
0.0141390791564
0.0141740723635
0.0142084561675
0.0142422377534
0.0142754244867
0.0143080238896
0.0143400436193
0.0143714914469
0.0144023752383
0.0144327029347
0.0144624825348
0.0144917220792
0.0145204296348
0.0145486132801
0.0145762810924
0.0146034411353
0.0146301014479
0.0146562700342
0.0146819548538
0.014707163813
0.014731904758
0.0147561854678
0.0147800136471
0.0148033969218
0.0148263428338
0.0148488588374
0.0148709522949
0.0148926304737
0.014913900544
0.0149347695775
0.0149552445442
0.014975332312
0.0149950396457
0.0150143732068
0.0150333395515
0.015051945133
0.0150702018373
0.0150881424306
0.0151058020137
0.0151231880676
0.0151403075225
0.0151571672002
0.0151737738074
0.0151901339584
0.015206254141
0.0152221407297
0.0152378000121
0.0152532381801
0.0152684612932
0.0152834753002
0.0152982860532
0.0153128993145
0.0153273207149
0.0153415558065
0.0153556099659
0.0153694885138
0.0153831966329
0.0153967394084
0.0154101217834
0.0154233485474
0.0154364244025
0.015449353886
0.0154621413977
0.0154747911804
0.015487307332
0.0154996937608
0.0155119542161
0.0155240922545
0.0155361112275
0.0155480142897
0.0155598043664
0.0155714841489
0.0155830560705
0.0155945223026
0.015605884741
0.0156171449686
0.0156283042581
0.0156393635307
0.0156503233547
0.0156611839114
0.0156719449761
0.01568260589
0.0156931655382
0.0157036223263
0.0157139741482
0.0157242183653
0.0157343517683
0.0157443705588
0.0157542703182
0.015764045979
0.015773691802
0.0157832013444
0.0157925674365
0.0158017821626
0.0158108368385
0.0158197219934
0.0158284273596
0.0158369418623
0.0158452536212
0.0158533499471
0.0158612173587
0.0158688416049
0.0158762076904
0.0158832999188
0.0158901019514
0.0158965968738
0.0159027672804
0.0159085953794
0.0159140631134
0.0159191523054
0.0159238448191
0.0159281227484
0.0159319686324
0.0159353656915
0.0159382980945
0.0159407512507
0.0159427121287
0.0159441695988
0.015945114803
0.0159455427003
0.0159456297808
0.0159456371284
0.0159456439216
0.0159456501976
0.0159456559911
0.0159456613349
0.0159456662593
0.0159456707931
0.0159456749628
0.0159456787937
0.0159456823153
0.0104148783589
0.0104638836147
0.010526852871
0.0105857553979
0.0106475473827
0.0107081616595
0.0107698160561
0.0108312595192
0.0108931096146
0.010955018893
0.0110171179704
0.0110793080265
0.0111415953418
0.0112039390008
0.0112663178549
0.0113287022967
0.0113910658657
0.0114533807915
0.0115156197727
0.0115777554195
0.0116397605372
0.0117016081204
0.0117632714408
0.0118247240977
0.0118859400759
0.0119468938088
0.0120075602308
0.0120679148272
0.0121279336851
0.0121875935406
0.0122468718203
0.0123057466833
0.0123641970578
0.0124222026734
0.0124797440936
0.0125368027418
0.0125933609227
0.0126494018423
0.0127049096246
0.0127598693244
0.0128142669353
0.0128680893942
0.0129213245851
0.0129739613361
0.013025989416
0.0130773995262
0.0131281832878
0.0131783332334
0.0132278427866
0.0132767062457
0.0133249187641
0.0133724763274
0.0134193757285
0.0134656145419
0.013511191097
0.0135561044498
0.0136003543528
0.0136439412247
0.0136868661209
0.0137291307001
0.0137707371942
0.0138116883761
0.013851987527
0.0138916384069
0.0139306452223
0.0139690125947
0.0140067455317
0.0140438493963
0.0140803298781
0.014116192966
0.0141514449206
0.0141860922481
0.0142201416746
0.0142536001222
0.0142864746857
0.0143187726107
0.0143505012724
0.014381668156
0.0144122808377
0.0144423469672
0.0144718742511
0.0145008704366
0.0145293432981
0.0145573006231
0.0145847501998
0.0146116998059
0.0146381571974
0.0146641300992
0.0146896261966
0.0147146531268
0.0147392184721
0.0147633297527
0.0147869944213
0.0148102198582
0.0148330133662
0.0148553821669
0.014877333397
0.0148988741061
0.0149200112538
0.0149407517073
0.0149611022402
0.0149810695314
0.0150006601637
0.0150198806226
0.0150387372983
0.0150572397877
0.0150754197233
0.015093316385
0.0151109372961
0.0151282893761
0.0151453794369
0.0151622141716
0.0151788002041
0.0151951440251
0.0152112520165
0.0152271304617
0.0152427855782
0.0152582234528
0.0152734500639
0.0152884712787
0.015303292884
0.0153179205396
0.015332359841
0.0153466162137
0.0153606949976
0.0153746014088
0.0153883405689
0.0154019174781
0.01541533697
0.0154286037797
0.0154417224925
0.0154546975553
0.0154675332552
0.0154802337281
0.0154928029337
0.0155052446622
0.0155175625133
0.0155297598772
0.0155418399469
0.0155538056864
0.0155656598213
0.0155774048189
0.0155890428826
0.0156005759299
0.015612005567
0.0156233330838
0.0156345594169
0.0156456851412
0.0156567104397
0.0156676350854
0.015678458408
0.0156891792767
0.0156997960686
0.0157103066462
0.0157207083239
0.0157309978416
0.0157411713394
0.0157512243197
0.0157611516301
0.015770947433
0.0157806051775
0.0157901175732
0.015799476564
0.0158086733166
0.0158176981949
0.0158265407536
0.0158351897232
0.0158436330134
0.0158518577154
0.0158598501121
0.0158675957021
0.0158750792302
0.0158822847305
0.015889195582
0.0158957945828
0.0159020640345
0.0159079858484
0.0159135416701
0.015918713027
0.0159234814954
0.0159278288907
0.0159317374865
0.0159351902571
0.0159381711479
0.015940665371
0.0159426597298
0.0159441429672
0.0159451061405
0.0159455401495
0.0159456259111
0.0159456334551
0.0159456404329
0.0159456468826
0.0159456528396
0.0159456583373
0.0159456634066
0.0159456680768
0.0159456723752
0.0159456763274
0.0159456799634
0.0104193456017
0.0104671913255
0.0105288417783
0.0105864459093
0.0106469512941
0.0107063399313
0.0107667816376
0.0108270629878
0.0108877762576
0.0109485889508
0.011009622913
0.0110707836404
0.0111320749367
0.0111934567425
0.0112549072051
0.0113163967032
0.0113778984604
0.0114393845011
0.0115008272636
0.0115621991054
0.0116234725657
0.0116846203591
0.0117456154629
0.0118064311683
0.0118670411404
0.0119274194753
0.0119875407528
0.0120473800891
0.0121069131835
0.0121661163664
0.0122249666432
0.0122834417327
0.0123415201047
0.0123991810165
0.0124564045401
0.0125131715878
0.0125694639405
0.0126252642655
0.0126805561324
0.0127353240258
0.0127895533568
0.0128432304697
0.0128963426421
0.0129488780865
0.0130008259462
0.0130521762892
0.0131029200989
0.0131530492607
0.0132025565488
0.0132514356097
0.0132996809421
0.0133472878759
0.0133942525493
0.0134405718838
0.0134862435589
0.0135312659844
0.0135756382713
0.013619360205
0.0136624322121
0.0137048553322
0.0137466311868
0.0137877619476
0.0138282503067
0.0138680994453
0.0139073130027
0.0139458950471
0.013983850045
0.0140211828316
0.0140578985839
0.0140940027921
0.0141295012325
0.0141643999415
0.0141987051916
0.0142324234657
0.0142655614351
0.0142981259371
0.0143301239542
0.0143615625938
0.0143924490699
0.0144227906846
0.0144525948121
0.0144818688825
0.0145106203667
0.0145388567635
0.0145665855866
0.0145938143523
0.0146205505694
0.0146468017283
0.0146725752928
0.0146978786911
0.0147227193081
0.0147471044789
0.0147710414827
0.0147945375369
0.014817599792
0.0148402353279
0.0148624511498
0.0148842541847
0.014905651279
0.0149266491958
0.0149472546129
0.0149674741215
0.0149873142243
0.015006781335
0.0150258817781
0.0150446227997
0.015063034849
0.015081161467
0.0150990102219
0.0151165880178
0.0151339016551
0.0151509578101
0.0151677631041
0.0151843240425
0.0152006470148
0.0152167383003
0.0152326041277
0.0152482506054
0.0152636837443
0.0152789094378
0.0152939334848
0.0153087615741
0.0153233993312
0.0153378522332
0.0153521256456
0.0153662248248
0.0153801549198
0.0153939209675
0.0154075278636
0.0154209803702
0.0154342831191
0.0154474406014
0.0154604571461
0.0154733369273
0.0154860839536
0.0154987020529
0.01551119487
0.015523565834
0.0155358181731
0.0155479548886
0.015559978743
0.0155718922314
0.0155836975889
0.0155953967608
0.0156069913711
0.0156184827271
0.0156298717816
0.0156411591166
0.0156523449191
0.015663428954
0.0156744105419
0.0156852885273
0.0156960612677
0.015706726595
0.0157172817831
0.0157277235209
0.015738047885
0.0157482503115
0.0157583255612
0.0157682676952
0.0157780700459
0.0157877251956
0.0157972249556
0.0158065603461
0.0158157215749
0.0158246980219
0.0158334782325
0.0158420499127
0.0158503999371
0.0158585143588
0.0158663784325
0.0158739766473
0.0158812927722
0.0158883099116
0.0158950105794
0.0159013767889
0.0159073901607
0.015913032048
0.0159182836883
0.0159231263736
0.0159275416475
0.0159315115246
0.0159350187393
0.0159380470181
0.0159405813828
0.015942608478
0.0159441169264
0.0159450968147
0.0159455368042
0.0159456220592
0.0159456297969
0.015945636957
0.0159456435781
0.0159456496966
0.0159456553462
0.0159456605588
0.0159456653639
0.0159456697894
0.0159456738615
0.0159456776107
0.0104252176028
0.0104718987977
0.0105322174482
0.0105885144627
0.0106477239927
0.0107058783076
0.0107650995432
0.0108242108707
0.0108837801001
0.0109434889625
0.0110034509296
0.0110635754933
0.0111238640837
0.0111842773783
0.0112447928191
0.0113053807179
0.0113660139569
0.0114266643256
0.0114873039763
0.0115479049924
0.0116084396205
0.0116688802798
0.0117291996372
0.0117893706619
0.0118493666878
0.0119091614626
0.0119687292053
0.0120280446545
0.012087083118
0.0121458205198
0.0122042334418
0.0122622991624
0.012319995698
0.0123773018325
0.0124341971488
0.0124906620593
0.0125466778257
0.0126022265819
0.0126572913506
0.0127118560574
0.0127659055404
0.0128194255587
0.0128724027953
0.0129248248579
0.0129766802764
0.013027958497
0.0130786498749
0.0131287456628
0.013178237998
0.0132271198857
0.0132753851818
0.0133230285735
0.0133700455556
0.0134164324091
0.0134621861749
0.0135073046275
0.0135517862486
0.0135956301984
0.0136388362876
0.013681404946
0.0137233371939
0.0137646346122
0.0138052993117
0.0138453339033
0.0138847414682
0.0139235255279
0.013961690015
0.0139992392449
0.0140361778874
0.0140725109396
0.014108243699
0.0141433817386
0.0141779308807
0.0142118971739
0.0142452868698
0.0142781064009
0.0143103623599
0.0143420614798
0.0143732106147
0.0144038167217
0.0144338868445
0.0144634280969
0.0144924476485
0.0145209527104
0.0145489505222
0.0145764483403
0.0146034534259
0.0146299730355
0.0146560144115
0.0146815847725
0.0147066913065
0.0147313411629
0.0147555414463
0.0147792992108
0.0148026214537
0.0148255151124
0.0148479870589
0.0148700440971
0.0148916929587
0.0149129403017
0.0149337927064
0.0149542566748
0.0149743386287
0.0149940449076
0.0150133817694
0.0150323540513
0.0150509909711
0.0150693404063
0.0150874099701
0.0151052065489
0.0151227369286
0.0151400077762
0.0151570256927
0.0151737972016
0.0151903287042
0.01520662648
0.0152226967566
0.0152385456636
0.0152541792268
0.0152696033752
0.0152848239311
0.0152998466043
0.0153146770354
0.0153293207478
0.0153437831478
0.0153580695262
0.0153721850655
0.0153861348293
0.0153999237646
0.0154135566744
0.0154270382256
0.0154403729543
0.0154535652287
0.0154666192657
0.0154795391163
0.0154923286463
0.0155049915387
0.0155175312644
0.0155299510897
0.0155422540533
0.0155544429466
0.0155665203011
0.0155784883738
0.0155903491377
0.0156021042421
0.0156137549989
0.0156253023697
0.0156367469536
0.0156480889548
0.0156593281329
0.0156704638069
0.0156814947998
0.0156924194224
0.0157032354406
0.0157139400804
0.015724529989
0.0157350011883
0.0157453490513
0.0157555682689
0.0157656528224
0.01577559596
0.0157853901614
0.0157950271138
0.0158044976833
0.0158137919123
0.0158228990002
0.0158318073002
0.0158405043143
0.015848976698
0.0158572102742
0.0158651900547
0.0158729002723
0.0158803244299
0.0158874453603
0.0158942452995
0.0159007059782
0.0159068087317
0.0159125346298
0.0159178646292
0.0159227797473
0.0159272612629
0.0159312909403
0.0159348512815
0.0159379258048
0.0159404993501
0.015942558411
0.0159440914946
0.0159450870806
0.015945532904
0.0159456182265
0.0159456261552
0.0159456334951
0.0159456402856
0.0159456465633
0.015945652363
0.0159456577169
0.0159456626553
0.0159456672065
0.0159456713971
0.0159456752581
0.0104324975939
0.0104780084476
0.0105369819067
0.0105919625356
0.0106498665119
0.0107067773755
0.0107647699002
0.0108227028778
0.0108811204462
0.0109397178652
0.010998600603
0.0110576818459
0.0111169607416
0.0111763985978
0.0112359721437
0.0112956515702
0.0113554093949
0.011415217137
0.0114750466409
0.0115348696855
0.0115946582085
0.0116543843108
0.0117140203333
0.011773538912
0.0118329130314
0.0118921160826
0.011951121913
0.0120099048781
0.0120684398906
0.0121267024632
0.0121846687511
0.0122423155941
0.012299620553
0.0123565619423
0.0124131188629
0.0124692712262
0.0125249997817
0.0125802861363
0.0126351127733
0.0126894630662
0.0127433212897
0.0127966726279
0.0128495031778
0.0129017999531
0.0129535508808
0.0130047447966
0.0130553714392
0.0131054214392
0.0131548863071
0.0132037584205
0.0132520310043
0.0132996981131
0.0133467546113
0.0133931961494
0.0134390191407
0.0134842207363
0.0135287987992
0.0135727518761
0.0136160791695
0.0136587805102
0.0137008563275
0.0137423076196
0.0137831359253
0.013823343294
0.0138629322558
0.0139019057935
0.0139402673131
0.0139780206162
0.0140151698722
0.0140517195911
0.0140876745976
0.0141230400052
0.0141578211918
0.0141920237756
0.0142256535923
0.0142587166737
0.0142912192264
0.0143231676111
0.0143545683246
0.0143854279817
0.0144157532975
0.0144455510716
0.0144748281736
0.0145035915281
0.0145318481019
0.0145596048915
0.0145868689117
0.0146136471856
0.0146399467338
0.0146657745659
0.0146911376722
0.0147160430165
0.0147404975283
0.0147645080972
0.0147880815675
0.0148112247328
0.0148339443313
0.0148562470421
0.0148781394819
0.0148996282014
0.0149207196829
0.0149414203378
0.0149617365052
0.0149816744494
0.0150012403603
0.0150204366106
0.0150392911435
0.0150578562421
0.0150761395622
0.0150941479682
0.0151118882338
0.0151293670243
0.0151465909116
0.0151635664261
0.0151802999794
0.01519679786
0.0152130663004
0.0152291114319
0.0152449392974
0.0152605558518
0.0152759669454
0.0152911783158
0.0153061956183
0.0153210244031
0.0153356701174
0.0153501380938
0.0153644335463
0.0153785615705
0.0153925271462
0.0154063351249
0.0154199902053
0.01543349697
0.0154468598198
0.0154600830153
0.0154731706513
0.0154861266347
0.0154989546724
0.0155116582871
0.0155242407814
0.0155367052232
0.0155490544212
0.0155612909369
0.0155734170786
0.0155854348426
0.0155973459237
0.0156091516541
0.0156208529703
0.0156324504024
0.0156439441372
0.0156553339453
0.0156666191466
0.0156777985852
0.015688870614
0.0156998330305
0.0157106830303
0.0157214171946
0.0157320314716
0.0157425211501
0.0157528808255
0.0157631043706
0.0157731849045
0.0157831147693
0.015792885515
0.0158024878705
0.0158119117243
0.0158211461108
0.0158301792019
0.0158389983051
0.0158475898679
0.0158559394924
0.0158640319587
0.015871851259
0.0158793806421
0.0158866026764
0.0158934993267
0.0159000520471
0.0159062418943
0.0159120496596
0.0159174560241
0.0159224417371
0.0159269878187
0.0159310757892
0.0159346879244
0.015937807539
0.0159404192959
0.0159425095439
0.0159440666804
0.0159450775771
0.0159455290569
0.0159456144145
0.0159456225317
0.0159456300489
0.0159456370062
0.0159456434411
0.0159456493888
0.0159456548822
0.0159456599521
0.0159456646273
0.015945668935
0.0159456729065
0.0104411893025
0.0104855231407
0.0105431375874
0.0105967919989
0.0106533802566
0.010709038058
0.0107657931822
0.0108225390782
0.0108797969555
0.0109372749486
0.010995070869
0.0110531013119
0.0111113632302
0.011169818444
0.0112284429704
0.0112872068301
0.0113460821438
0.0114050401311
0.0114640522966
0.0115230900978
0.011582125136
0.0116411291732
0.0117000742083
0.0117589325223
0.0118176767422
0.0118762798905
0.0119347154347
0.0119929573393
0.0120509801143
0.0121087588563
0.0121662692928
0.0122234878227
0.0122803915515
0.0123369583256
0.0123931667627
0.0124489962813
0.0125044271221
0.0125594403718
0.0126140179803
0.0126681427762
0.012721798478
0.0127749697024
0.0128276419719
0.0128798017145
0.0129314362638
0.0129825338563
0.0130330836243
0.0130830755871
0.0131325006412
0.0131813505455
0.0132296179055
0.0132772961554
0.0133243795384
0.0133708630869
0.0134167425979
0.0134620146092
0.0135066763746
0.0135507258374
0.0135941616032
0.0136369829127
0.013679189613
0.0137207821296
0.0137617614372
0.0138021290315
0.0138418868999
0.0138810374938
0.0139195836997
0.0139575288126
0.0139948765072
0.0140316308125
0.0140677960856
0.014103376986
0.0141383784517
0.0141728056749
0.0142066640802
0.0142399593018
0.0142726971629
0.0143048836559
0.0143365249232
0.014367627239
0.0143981969922
0.0144282406704
0.0144577648442
0.0144867761533
0.0145152812926
0.0145432870002
0.0145708000453
0.0145978272171
0.0146243753153
0.0146504511405
0.0146760614856
0.0147012131278
0.0147259128217
0.0147501672924
0.0147739832297
0.0147973672828
0.0148203260554
0.0148428661013
0.0148649939208
0.0148867159565
0.014908038591
0.0149289681444
0.0149495108715
0.0149696729602
0.0149894605306
0.0150088734402
0.015027938315
0.0150467119098
0.0150652019197
0.0150834151865
0.0151013584666
0.0151190384291
0.0151364616191
0.0151536345571
0.0151705636599
0.0151872552314
0.0152037155087
0.015219950635
0.0152359666526
0.0152517695387
0.0152673651722
0.0152827593209
0.0152979576523
0.0153129657499
0.0153277890878
0.015342433031
0.0153569028322
0.0153712036184
0.0153853404007
0.0153993180792
0.0154131413924
0.0154268149398
0.0154403431738
0.0154537304052
0.0154669807547
0.0154800981648
0.0154930863538
0.0155059488979
0.0155186891694
0.0155313103086
0.0155438151502
0.0155562061884
0.0155684856648
0.0155806555811
0.0155927176563
0.0156046733127
0.0156165236431
0.0156282692936
0.0156399104471
0.0156514468476
0.0156628777762
0.015674202019
0.0156854178255
0.0156965229162
0.0157075144454
0.0157183889556
0.0157291423453
0.0157397698405
0.0157502659635
0.0157606245021
0.015770838485
0.0157809001508
0.0157908009237
0.0158005313927
0.0158100812935
0.0158194394943
0.0158285939875
0.015837531888
0.0158462394378
0.0158547020209
0.0158629041871
0.015870829687
0.0158784615193
0.015885781994
0.0158927728102
0.0158994151524
0.0159056898048
0.015911577287
0.0159170580119
0.0159221124672
0.0159267214217
0.0159308661587
0.015934528735
0.0159376922685
0.0159403412524
0.0159424618963
0.0159440424937
0.0159450683078
0.0159455252645
0.0159456106248
0.0159456189277
0.0159456266196
0.0159456337414
0.0159456403312
0.0159456464249
0.0159456520559
0.0159456572555
0.0159456620531
0.0159456664763
0.0159456705569
0.0104512969437
0.0104944462438
0.0105506873675
0.0106030051305
0.0106582670116
0.0107126616721
0.0107681702447
0.0108237198998
0.0108798096503
0.0109361598656
0.0109928610246
0.0110498328612
0.0111070702127
0.0111645353082
0.0112222034383
0.0112800444053
0.0113380299073
0.0113961308273
0.0114543183082
0.011512563452
0.0115708375025
0.0116291118665
0.0116873581779
0.0117455483526
0.0118036546426
0.0118616496868
0.0119195065634
0.0119771988381
0.0120347006104
0.0120919865557
0.0121490319719
0.012205812814
0.012262305731
0.0123184881023
0.0123743380662
0.012429834547
0.0124849572826
0.0125396868425
0.0125940046506
0.0126478929965
0.0127013350497
0.0127543148701
0.012806817411
0.0128588285246
0.0129103349611
0.0129613243661
0.0130117852762
0.0130617071112
0.0131110801625
0.0131598955806
0.0132081453627
0.0132558223332
0.0133029201265
0.0133494331658
0.0133953566415
0.0134406864891
0.0134854193638
0.0135295526152
0.0135730842618
0.0136160129634
0.0136583379941
0.0137000592147
0.0137411770446
0.0137816924341
0.0138216068359
0.0138609221772
0.0138996408319
0.0139377655941
0.0139752996511
0.0140122465568
0.0140486102057
0.0140843948089
0.0141196048691
0.0141542451572
0.0141883206902
0.0142218367086
0.0142547986561
0.0142872121596
0.0143190830098
0.0143504171432
0.0143812206244
0.0144114996308
0.0144412604362
0.0144705093966
0.0144992529366
0.0145274975363
0.0145552497199
0.0145825160441
0.0146093030878
0.0146356174427
0.0146614657043
0.0146868544637
0.0147117902997
0.0147362797725
0.0147603294174
0.0147839457385
0.0148071352041
0.0148299042419
0.0148522592346
0.014874206516
0.0148957523683
0.0149169030185
0.0149376646364
0.0149580433321
0.0149780451545
0.0149976673979
0.0150169353316
0.0150359102432
0.0150545998699
0.01507301102
0.0150911504348
0.0151090247733
0.0151266405717
0.0151440043343
0.0151611224704
0.0151780013004
0.0151946470665
0.0152110659184
0.0152272639149
0.0152432470372
0.0152590211847
0.0152745921639
0.0152899656554
0.0153051472645
0.0153201424988
0.015334956759
0.0153495953205
0.0153640633383
0.0153783658669
0.015392507841
0.0154064940557
0.015420329101
0.0154340174345
0.0154475634789
0.0154609714563
0.0154742453504
0.0154873888078
0.0155004052914
0.0155132981478
0.0155260705828
0.0155387256102
0.0155512659804
0.0155636940505
0.0155760118367
0.0155882210058
0.0156003228761
0.015612318418
0.0156242082562
0.0156359925931
0.0156476711864
0.0156592433197
0.015670707781
0.0156820628312
0.0156933061688
0.015704434907
0.0157154455396
0.0157263339086
0.0157370951733
0.015747723779
0.0157582134264
0.0157685570438
0.015778746758
0.01578877387
0.0157986288326
0.0158083012319
0.0158177797738
0.0158270522752
0.0158361056624
0.0158449259764
0.0158534983877
0.0158618072211
0.0158698359913
0.0158775674523
0.0158849836611
0.0158920660577
0.015898795563
0.0159051526957
0.0159111177104
0.015916670759
0.0159217920745
0.0159264621821
0.015930662135
0.0159343737784
0.0159375800404
0.015940265251
0.0159424154871
0.015944018944
0.0159450592767
0.0159455215285
0.0159456068592
0.0159456153448
0.0159456232087
0.0159456304925
0.0159456372349
0.0159456434724
0.015945649239
0.0159456545665
0.0159456594848
0.015945664022
0.0159456682103
0.0104628252422
0.0105047816463
0.0105596346261
0.0106106047057
0.0106645290454
0.0107176499767
0.0107719023657
0.0108262461884
0.010881158946
0.0109363726431
0.0109919707358
0.0110478758311
0.011104080714
0.0111605479307
0.0112172520284
0.011274162539
0.0113312507127
0.0113884870631
0.0114458423388
0.0115032872638
0.0115607927029
0.0116183296799
0.0116758694483
0.0117333835382
0.0117908438124
0.0118482225145
0.0119054923227
0.0119626263951
0.0120195984111
0.0120763826213