/*--------------------------------*- C++ -*----------------------------------*\
| =========                 |                                                 |
| \\      /  F ield         | OpenFOAM: The Open Source CFD Toolbox           |
|  \\    /   O peration     | Version:  2412                                  |
|   \\  /    A nd           | Website:  www.openfoam.com                      |
|    \\/     M anipulation  |                                                 |
\*---------------------------------------------------------------------------*/
FoamFile
{
    version     2.0;
    format      ascii;
    arch        "LSB;label=32;scalar=64";
    class       volVectorField;
    location    "3";
    object      U;
}
// * * * * * * * * * * * * * * * * * * * * * * * * * * * * * * * * * * * * * //

dimensions      [0 1 -1 0 0 0 0];

internalField   nonuniform List<vector> 
64000
(
(0.00656139563211 -0.325401353926 -1.00873171471e-24)
(0.00622564406043 -0.321750425018 -9.19311213599e-25)
(0.00651381099948 -0.315501585303 5.8980607253e-26)
(0.00603850607421 -0.310076986641 -5.83206977945e-26)
(0.00628555743884 -0.304184158992 -9.55565175941e-25)
(0.005938872396 -0.298605062046 -8.144466109e-25)
(0.0060289858942 -0.292894071773 0)
(0.00581797514142 -0.287306646548 7.63766362618e-25)
(0.00579851219115 -0.28170713222 -1.0939244609e-25)
(0.00566116212277 -0.276168474394 -7.1486643428e-25)
(0.00559044206251 -0.270656542349 0)
(0.00548180569938 -0.265190228719 7.72791714999e-25)
(0.00539211874149 -0.259763131191 6.45145972652e-25)
(0.00529197151577 -0.254380474059 0)
(0.00519619243615 -0.24904231392 0)
(0.00509781028198 -0.243750894677 -5.79975080327e-25)
(0.00500018874747 -0.238507529484 -4.62094370339e-25)
(0.00490196936959 -0.233313866112 0)
(0.00480387050011 -0.22817138209 -9.39955671623e-26)
(0.00470572658913 -0.223081570603 1.84827860635e-25)
(0.00460773167715 -0.218045866838 0)
(0.00450993490859 -0.213065668981 6.4155050034e-25)
(0.00441243813003 -0.208142326204 4.45328694911e-25)
(0.00431532067238 -0.203277138468 -6.00201959748e-25)
(0.00421866668972 -0.198471352764 -2.42381717707e-25)
(0.00412255531614 -0.193726160671 0)
(0.00402706392256 -0.189042695957 2.16668296317e-25)
(0.00393226673973 -0.184422032492 5.233695474e-25)
(0.00383823497822 -0.179865182317 1.92834116622e-25)
(0.00374503694933 -0.175373093995 1.81603281151e-25)
(0.00365273775561 -0.170946651168 3.20805306693e-25)
(0.00356139906875 -0.166586671466 4.54205413992e-25)
(0.00347107931977 -0.162293905503 0)
(0.00338183352364 -0.158069036029 0)
(0.00329371320734 -0.153912677536 0)
(0.00320676636091 -0.149825375925 0)
(0.00312103744932 -0.145807608313 4.93086224019e-25)
(0.0030365675136 -0.141859783174 4.71269386675e-25)
(0.0029533940031 -0.137982240544 2.51151147934e-25)
(0.00287155087327 -0.13417525251 0)
(0.00279106873095 -0.13043902384 -2.39438000973e-25)
(0.00271197469532 -0.126773692702 -2.33671902572e-25)
(0.00263429261796 -0.123179331722 0)
(0.00255804318388 -0.119655949066 1.3408366217e-25)
(0.00248324382551 -0.116203489608 5.5654535446e-25)
(0.00240990900829 -0.112821836426 -2.11270893561e-25)
(0.00233805029735 -0.109510812253 0)
(0.00226767631818 -0.106270181034 0)
(0.00219879308047 -0.103099649736 0)
(0.00213140403808 -0.0999988701071 3.80075540198e-25)
(0.00206551008371 -0.0969674405574 -2.53247745499e-25)
(0.00200110987134 -0.0940049082362 -3.40780622512e-35)
(0.00193819990059 -0.0911107709981 8.07942435054e-25)
(0.00187677451325 -0.088284479466 5.57864866301e-25)
(0.00181682615485 -0.0855254392633 0)
(0.00175834550544 -0.0828330131452 3.21233679802e-25)
(0.00170132151497 -0.0802065231772 0)
(0.00164574159543 -0.0776452530365 3.54366455927e-25)
(0.00159159173537 -0.0751484502135 3.36345969993e-25)
(0.0015388565651 -0.0727153282128 0)
(0.0014875195384 -0.0703450688651 0)
(0.0014375630336 -0.0680368245593 0)
(0.00138896837651 -0.0657897203949 -2.60467179216e-25)
(0.00134171598501 -0.0636028563846 0)
(0.00129578552447 -0.0614753096295 0)
(0.00125115594238 -0.0594061364196 0)
(0.00120780551649 -0.0573943743362 0)
(0.00116571197191 -0.0554390443098 -2.07771277234e-25)
(0.00112485257509 -0.0535391525738 -1.96695770516e-25)
(0.00108520418733 -0.0516936925856 1.86166423892e-25)
(0.00104674332292 -0.0499016469448 3.52318967238e-25)
(0.00100944620971 -0.048161989234 -2.23403255795e-25)
(0.000973288848669 -0.0464736857526 0)
(0.000938247083475 -0.0448356971986 -1.49047495933e-25)
(0.000904296657781 -0.0432469803205 -3.52575082296e-25)
(0.000871413243838 -0.0417064895108 1.33184917002e-25)
(0.000839572474349 -0.0402131783097 0)
(0.000808750001422 -0.0387660008276 0)
(0.000778921553089 -0.0373639131095 3.07118311825e-25)
(0.000750062958332 -0.0360058744487 -2.12146661773e-25)
(0.000722150159161 -0.0346908486376 -8.12492656482e-37)
(0.000695159243135 -0.0334178051359 1.89093469754e-25)
(0.000669066491466 -0.0321857201607 -1.78470675089e-25)
(0.000643848413921 -0.0309935777156 -6.82686671089e-25)
(0.000619481761131 -0.029840370569 0)
(0.000595943533427 -0.0287251011741 3.28406657385e-25)
(0.000573211004591 -0.0276467825154 -2.82694745597e-25)
(0.000551261752369 -0.0266044388849 -1.33279373174e-25)
(0.000530073678842 -0.0255971065999 -1.25648729376e-25)
(0.000509625017643 -0.0246238346735 2.94225972015e-25)
(0.000489894341246 -0.0236836854331 -5.09125832813e-25)
(0.000470860575623 -0.0227757350781 -1.05165327314e-25)
(0.000452503017325 -0.0218990741754 9.90733182668e-26)
(0.000434801345899 -0.0210528081029 9.33179704982e-26)
(0.000417735628494 -0.0202360574506 0)
(0.00040128632093 -0.0194479583818 1.65496625122e-25)
(0.000385434272819 -0.0186876629438 1.55803088193e-25)
(0.000370160736978 -0.0179543393238 -7.55337431019e-25)
(0.000355447377568 -0.017247172068 -1.38017410001e-25)
(0.000341276279344 -0.0165653622599 0)
(0.000327629887833 -0.0159081276793 0)
(0.000314491125003 -0.0152747029336 0)
(0.000301843699887 -0.0146643392917 0)
(0.000289668416051 -0.0140763054807 0)
(0.000277960639865 -0.0135098865945 4.61927720782e-25)
(0.000266679930832 -0.0129643830568 0)
(0.000255683483884 -0.0124391178785 4.26344355633e-25)
(0.000244908681552 -0.0119334312928 -2.57885826288e-26)
(0.00023438681929 -0.0114466710189 -3.93268165605e-25)
(0.000224117006958 -0.0109782107917 7.00955269372e-26)
(0.000214102907215 -0.0105274352997 2.02272947194e-26)
(0.00020434554145 -0.0100937418073 2.24198125968e-25)
(0.000194847474276 -0.00967654714968 -3.22182615745e-26)
(0.00018561241535 -0.00927528976971 -6.40844330019e-25)
(0.000176640637061 -0.00888942375978 5.12217716167e-25)
(0.000167935769819 -0.00851840302004 -9.63642497517e-26)
(0.000159491973473 -0.00816171425995 1.42274835097e-25)
(0.000151307809369 -0.00781884013058 -2.21411983207e-25)
(0.000143383793084 -0.00748931163486 -2.10594119031e-25)
(0.000135719050733 -0.00717264098875 -2.477848011e-25)
(0.000128308134078 -0.00686836769343 4.77734452588e-25)
(0.000121147207196 -0.00657603915174 -2.30166407503e-25)
(0.000114235027252 -0.00629523110079 2.20500300657e-25)
(0.000107567281342 -0.00602553553368 -2.69503390661e-25)
(0.00010114310011 -0.00576652852813 1.47524766326e-25)
(9.49526661006e-05 -0.00551781530857 0)
(8.90024695257e-05 -0.00527901139072 -4.19125052648e-25)
(8.32819254756e-05 -0.00504976985714 -4.5337959923e-26)
(7.77849533786e-05 -0.0048297212606 -2.54575326516e-25)
(7.25093804939e-05 -0.00461851471354 7.99808876082e-26)
(6.74474441683e-05 -0.00441582224738 7.96862819093e-26)
(6.25954824428e-05 -0.00422132813814 -7.05643817883e-26)
(5.79489672653e-05 -0.00403471021468 3.61114846658e-25)
(5.35025464262e-05 -0.0038556704683 -6.06408605274e-25)
(4.92501652705e-05 -0.00368392434134 0)
(4.51914658806e-05 -0.00351918868472 0)
(4.13180559181e-05 -0.00336118959355 -5.16740276756e-26)
(3.76269933438e-05 -0.00320966694556 -9.71395127492e-26)
(3.41134678593e-05 -0.00306437155871 -4.565768849e-26)
(3.07672169215e-05 -0.00292506252576 0)
(2.75985563935e-05 -0.00279150190974 7.91088756595e-25)
(2.45875798804e-05 -0.00266346340136 0)
(2.17172328591e-05 -0.00254073029983 -4.69449273449e-26)
(1.90022827969e-05 -0.00242309059626 -5.79871764487e-26)
(1.64381731065e-05 -0.00231034431453 -6.53632051621e-35)
(1.40217460421e-05 -0.00220229647728 -1.84184618576e-26)
(1.17394808628e-05 -0.00209876170735 5.60678226444e-26)
(9.58818801979e-06 -0.00199955554014 -5.15988977254e-25)
(7.56945175724e-06 -0.00190450821387 0)
(5.67415115614e-06 -0.00181344899452 0)
(3.89911103675e-06 -0.00172621847101 -1.06202517164e-24)
(2.23949423639e-06 -0.00164266051764 9.78141582461e-25)
(6.90236040906e-07 -0.00156262803353 8.52049931492e-25)
(-7.50464474292e-07 -0.00148597674308 -3.70517361552e-26)
(-2.0866720113e-06 -0.00141256814284 -3.49623393957e-26)
(-3.32215320502e-06 -0.00134226988953 9.57986248087e-25)
(-4.46230229654e-06 -0.00127495537079 7.9105322419e-25)
(-5.51079910436e-06 -0.00121049971347 -3.17658311078e-25)
(-6.46808709115e-06 -0.00114878837576 -2.78000351669e-26)
(-7.33922002974e-06 -0.00108970659052 -3.37313952869e-25)
(-8.12730324242e-06 -0.00103314658225 0)
(-8.83565038833e-06 -0.000979002674097 3.26704810565e-25)
(-9.46763432286e-06 -0.00092717481809 1.10750911631e-24)
(-1.00275438796e-05 -0.00087756699015 0)
(-1.0518687873e-05 -0.000830086961072 3.97937211428e-26)
(-1.0942757866e-05 -0.000784646809613 9.38600887927e-25)
(-1.13014432939e-05 -0.000741158970777 0)
(-1.15988333179e-05 -0.000699542900342 -7.36313049287e-25)
(-1.18378198982e-05 -0.00065971989452 3.20261298626e-26)
(-1.20202575694e-05 -0.000621614206827 -3.03582706195e-26)
(-1.21496837215e-05 -0.000585153975606 5.05385291991e-25)
(-1.2228986522e-05 -0.000550269491504 -4.48117176575e-25)
(-1.22608848718e-05 -0.000516894854059 6.46933041234e-25)
(-1.22477651301e-05 -0.000484966146079 5.83136129496e-25)
(-1.21919315028e-05 -0.000454421830406 0)
(-1.20964215307e-05 -0.000425203079921 3.67910028744e-25)
(-1.19643532046e-05 -0.000397254516729 -1.14135368908e-25)
(-1.17985690666e-05 -0.00037052111705 4.00276757493e-26)
(-1.16020144586e-05 -0.000344951811949 7.60581827821e-26)
(-1.13774651288e-05 -0.00032049712882 4.04435344731e-25)
(-1.11273488898e-05 -0.000297109759272 0)
(-1.08539513755e-05 -0.000274743878694 0)
(-1.05599999747e-05 -0.00025335567488 0)
(-1.02489503174e-05 -0.000232903416325 5.9165676504e-26)
(-9.92352467111e-06 -0.000213347392458 -1.89687532376e-25)
(-9.58623752052e-06 -0.000194648566366 3.62463906627e-25)
(-9.23974961195e-06 -0.000176770295998 7.68168144186e-26)
(-8.88634921329e-06 -0.000159676545289 2.72926099231e-26)
(-8.52662031032e-06 -0.000143333725724 4.66314187153e-26)
(-8.17831502416e-06 -0.000127709056779 2.22739010449e-26)
(-7.86383062229e-06 -0.000112770980675 0)
(-7.58543999839e-06 -9.84896045568e-05 0)
(-7.33954695934e-06 -8.48364045485e-05 1.94051089929e-25)
(-7.1242549491e-06 -7.17841285493e-05 0)
(-6.93759180053e-06 -5.93066983253e-05 -1.35455792311e-25)
(-6.77742179031e-06 -4.73791487674e-05 0)
(-6.6420361969e-06 -3.59775848722e-05 -8.18966676857e-26)
(-6.53004822566e-06 -2.50791304533e-05 0)
(-6.44123662532e-06 -1.46620155745e-05 0)
(-6.29772763494e-06 -4.68928374383e-06 3.11011422582e-26)
(0.0194879349654 -0.324969372125 1.94654572914e-24)
(0.0188734011117 -0.32132905836 1.82822661757e-24)
(0.0189803721453 -0.315068032036 -5.91090264916e-26)
(0.0182503865986 -0.309654071536 -6.69357295132e-26)
(0.0182835921065 -0.303760220107 1.53782658642e-24)
(0.0177066388712 -0.298188161164 1.61805638081e-24)
(0.0175727991104 -0.292479864413 2.40977260797e-25)
(0.0171401919731 -0.286898213072 -2.37650535408e-25)
(0.0168975666317 -0.281302890091 1.3424412584e-24)
(0.0165416577455 -0.275769656309 2.83778674309e-24)
(0.0162515260342 -0.270262692231 2.97012146616e-24)
(0.0159267922333 -0.264801843814 1.1855597354e-25)
(0.0156216880564 -0.259380156778 -1.27966917153e-24)
(0.0153085029933 -0.254003136712 0)
(0.0150012110826 -0.248670677095 -2.17023010076e-24)
(0.0146933917499 -0.243385088263 -2.29930397977e-24)
(0.0143882267194 -0.238147636515 1.08824382598e-25)
(0.0140845346873 -0.23295997729 -2.0326789327e-25)
(0.0137830401844 -0.227823571142 -1.049301528e-25)
(0.0134836579236 -0.222739905505 2.05973879482e-25)
(0.0131866278687 -0.217710405365 -3.85478427424e-25)
(0.0128920563782 -0.2127364608 -1.80227521608e-25)
(0.0126000950963 -0.20781941233 -3.71435543731e-25)
(0.01231087299 -0.202960551714 1.50364983886e-24)
(0.0120245208758 -0.198161117828 1.81420012484e-24)
(0.0117411623967 -0.193422294352 1.56276422856e-24)
(0.0114609168906 -0.188745207301 -1.79107941569e-25)
(0.0111838981969 -0.184130922995 -3.03935247315e-24)
(0.0109102145906 -0.179580446109 -1.55166495525e-24)
(0.0106399687925 -0.175094718054 -1.67885836282e-25)
(0.0103732577646 -0.170674615557 1.58356992801e-24)
(0.0101101724545 -0.166320949534 1.60539781664e-25)
(0.00985079792582 -0.162034464142 -1.16241402239e-24)
(0.0095952131432 -0.15781583595 0)
(0.00934349089352 -0.153665673521 -5.78138833894e-25)
(0.0090956978364 -0.149584517108 0)
(0.00885189443204 -0.145572838442 5.51893981338e-25)
(0.00861213506697 -0.141631040899 5.38954246798e-25)
(0.00837646796933 -0.13775945974 2.71788101071e-25)
(0.00814493523314 -0.133958362539 -1.36112678791e-24)
(0.00791757306567 -0.130227949879 -1.06743684789e-24)
(0.00769441170785 -0.126568356067 -2.51854561095e-25)
(0.00747547558371 -0.122979650129 0)
(0.00726078356818 -0.119461836978 -1.1784346394e-24)
(0.0070503489189 -0.116014858544 -1.99044907344e-24)
(0.00684417953106 -0.112638595216 -1.06045750436e-24)
(0.00664227819817 -0.109332867375 1.21380062849e-24)
(0.00644464258239 -0.106097436893 1.15560555001e-24)
(0.00625126551241 -0.10293200891 0)
(0.00606213525314 -0.0998362336545 4.05588580444e-25)
(0.00587723552958 -0.096809708273 0)
(0.00569654584438 -0.0938519788768 0)
(0.00552004173666 -0.0909625425611 -3.54440490782e-25)
(0.00534769483225 -0.0881408494025 -3.44573983319e-25)
(0.00517947314975 -0.0853863046663 8.11847129333e-25)
(0.00501534137017 -0.0826982709971 1.11144423056e-24)
(0.00485526090985 -0.0800760705418 0)
(0.00469919017278 -0.0775189872004 -6.27318111037e-25)
(0.00454708483561 -0.075026268871 6.5903862639e-25)
(0.00439889796223 -0.0725971296374 1.21544903722e-24)
(0.00425458019951 -0.0702307520381 0)
(0.00411408002559 -0.0679262893085 -5.61923716313e-25)
(0.00397734389078 -0.0656828675099 -2.68877467297e-25)
(0.0038443163891 -0.0634995877002 0)
(0.00371494048945 -0.0613755281433 1.00942088937e-24)
(0.00358915767463 -0.0593097464176 0)
(0.00346690806274 -0.0573012814505 -8.56960839029e-25)
(0.00334813061107 -0.0553491555554 -8.11096899845e-25)
(0.00323276329326 -0.0534523764259 0)
(0.00312074319611 -0.0516099390603 1.31271895523e-25)
(0.00301200663669 -0.049820827639 -5.44220106946e-25)
(0.00290648933107 -0.0480840173454 3.94475526633e-25)
(0.00280412654198 -0.046398476111 6.13787361195e-25)
(0.00270485317762 -0.0447631663056 1.32904431068e-24)
(0.00260860388293 -0.0431770463821 -5.42736096274e-25)
(0.00251531315017 -0.0416390724519 0)
(0.00242491544042 -0.0401481997754 4.89009197319e-25)
(0.00233734529236 -0.038703384185 9.23472569182e-25)
(0.00225253740138 -0.0373035834629 5.61445756458e-25)
(0.00217042668545 -0.0359477586542 4.11394340625e-25)
(0.00209094836414 -0.0346348752984 -3.88192952066e-25)
(0.00201403805404 -0.0333639045817 -7.32441668211e-25)
(0.00193963185278 -0.0321338244326 -1.09035946945e-24)
(0.00186766639447 -0.0309436205641 -2.0637477668e-25)
(0.00179807889254 -0.0297922874534 -6.1419296766e-25)
(0.0017308071957 -0.0286788292472 -8.47326185305e-26)
(0.0016657898569 -0.027602260597 5.45597737809e-25)
(0.00160296619093 -0.0265616074375 5.14070630279e-25)
(0.00154227630933 -0.0255559077141 -8.73926025692e-25)
(0.00148366114939 -0.0245842120541 8.81428003758e-25)
(0.00142706251328 -0.0236455843777 -7.90496683749e-25)
(0.0013724231106 -0.0227391024476 0)
(0.00131968659149 -0.0218638583642 -7.51128166398e-25)
(0.00126879756969 -0.0210189590151 0)
(0.00121970164153 -0.0202035264797 -1.39116779246e-24)
(0.00117234540488 -0.0194166983859 3.1703648676e-25)
(0.00112667647892 -0.0186576282116 -9.8917883785e-25)
(0.00108264352134 -0.0179254855416 6.13534028846e-25)
(0.0010401962439 -0.0172194562948 0)
(0.000999285421522 -0.0165387429054 0)
(0.000959862840323 -0.0158825644775 0)
(0.000921881515901 -0.0152501568823 0)
(0.000885295564708 -0.0146407726709 1.01592232781e-24)
(0.000850057546976 -0.0140536818371 3.86272457915e-25)
(0.000816134824549 -0.0134881703939 8.35102005496e-25)
(0.000783458600638 -0.0129435416175 -9.00492970074e-25)
(0.000751861541901 -0.0124191251273 4.3554963459e-25)
(0.000721253758302 -0.0119142659697 0)
(0.0006916416146 -0.0114283126501 -6.83149234793e-25)
(0.000663000165882 -0.0109606368955 2.3649388598e-25)
(0.000635306041252 -0.0105106216445 -2.48118810882e-25)
(0.000608538628462 -0.010077666785 1.21898337509e-25)
(0.000582680952971 -0.00966119064706 -2.18400828099e-25)
(0.000557712351968 -0.00926063184648 -8.57599099953e-25)
(0.000533609451159 -0.0088754429114 4.33805947131e-25)
(0.000510354350578 -0.00850507931416 -1.80222515702e-25)
(0.000487922498853 -0.00814902067904 -1.31332901024e-24)
(0.000466293586247 -0.00780676139738 1.25552289903e-24)
(0.000445449824108 -0.00747782401686 1.20014808389e-24)
(0.000425365593995 -0.00716172859284 -5.06565696072e-25)
(0.000406021883204 -0.00685800371846 7.46573914193e-25)
(0.000387400348559 -0.00656621190437 -6.80310818796e-25)
(0.000369483624767 -0.00628591388493 -2.29560968047e-25)
(0.000352245004952 -0.00601671415922 -2.1518176139e-25)
(0.000335661023488 -0.00575818101304 -8.12863677615e-25)
(0.000319720490389 -0.00550992918066 -7.78282456572e-25)
(0.000304411050271 -0.00527157388711 1.77193508255e-25)
(0.000289707140959 -0.00504275073271 1.66078379999e-25)
(0.00027558208101 -0.00482311200147 0)
(0.000262025996584 -0.00461229489171 -6.52970900026e-25)
(0.000249021716901 -0.00440997902539 1.56799931196e-25)
(0.00023654701078 -0.00421583999145 -1.28176668154e-25)
(0.000224585770701 -0.00402956827508 -1.43397555246e-25)
(0.000213124869761 -0.00385085655461 -5.46325046676e-25)
(0.000202147821153 -0.00367942679372 -1.0557934279e-25)
(0.000191635372293 -0.00351499176965 0)
(0.000181572901075 -0.00335727988044 -1.8560563745e-25)
(0.000171946857513 -0.00320603400756 -1.74036311308e-25)
(0.000162742933725 -0.00306099960472 0)
(0.000153945726854 -0.00292193657537 0)
(0.000145542397403 -0.00278860851206 -9.37532332635e-25)
(0.000137515219876 -0.00266080081209 -1.34693346215e-25)
(0.000129846911865 -0.00253828547887 1.15041527032e-25)
(0.000122530546406 -0.00242084859273 1.61855938426e-25)
(0.000115556178271 -0.00230829598931 0)
(0.000108909606128 -0.00220042843406 2.57723791617e-26)
(0.000102577176154 -0.00209706677236 1.96200961644e-25)
(9.65473841274e-05 -0.00199802322057 1.84251994936e-25)
(9.08097757263e-05 -0.00190312766254 6.30327341255e-25)
(8.53523349179e-05 -0.00181221199326 0)
(8.01644970094e-05 -0.00172511633631 5.22494165726e-25)
(7.52361818735e-05 -0.0016416855321 1.43611163265e-25)
(7.0557713398e-05 -0.00156177109399 0)
(6.61190000944e-05 -0.0014852315599 0)
(6.19104630448e-05 -0.00141192492902 0)
(5.79229087977e-05 -0.00134172213069 1.92721632904e-25)
(5.41464048896e-05 -0.00127449627582 0)
(5.05733656633e-05 -0.00121012241844 2.48380869761e-25)
(4.71965955634e-05 -0.00114848748838 -4.23292325654e-25)
(4.40070821174e-05 -0.00108947430577 -2.25199762791e-25)
(4.09968513821e-05 -0.00103297738774 2.96676182084e-25)
(3.81586687904e-05 -0.000978891236979 2.03508387521e-25)
(3.54859237917e-05 -0.000927115535631 0)
(3.29716699844e-05 -0.000877554131366 2.52351985934e-25)
(3.06092004023e-05 -0.000830115580012 -3.04439894415e-25)
(2.83909898345e-05 -0.000784711877173 -3.49620480713e-25)
(2.63109751154e-05 -0.000741256681228 -2.71780701137e-25)
(2.43636521151e-05 -0.000699668578618 -1.10157085942e-25)
(2.25430031605e-05 -0.000659869699266 8.61454793094e-26)
(2.08445166796e-05 -0.000621784743042 9.81123850473e-26)
(1.9262867057e-05 -0.000585341099135 -1.69071454841e-25)
(1.77932335708e-05 -0.00055047034704 7.15355884151e-26)
(1.64311610867e-05 -0.000517105977889 8.26851511514e-26)
(1.51708304747e-05 -0.000485184158517 -2.017446095e-25)
(1.40072730006e-05 -0.000454644155081 0)
(1.29364583501e-05 -0.000425426701303 1.22496730883e-25)
(1.19531142352e-05 -0.000397476378001 -1.15013787863e-25)
(1.10522724405e-05 -0.000370738750296 6.23243502718e-26)
(1.02297045946e-05 -0.0003451627161 4.57587861621e-25)
(9.48093803814e-06 -0.00032069925709 -1.45087820352e-27)
(8.80100197435e-06 -0.000297300735173 0)
(8.18486372177e-06 -0.000274921973037 0)
(7.62858206448e-06 -0.000253519202313 0)
(7.1283713568e-06 -0.000233050909951 0)
(6.67958133453e-06 -0.000213477021102 8.41484341572e-26)
(6.27805609994e-06 -0.000194759398345 7.54552312409e-25)
(5.91952691663e-06 -0.000176861065639 4.07938672942e-25)
(5.59982697982e-06 -0.000159746766217 8.08204871721e-25)
(5.31664875567e-06 -0.000143382312707 -5.92928636653e-25)
(5.05040508992e-06 -0.000127736434652 -6.44246770545e-26)
(4.77753022989e-06 -0.000112778504538 -5.80919723523e-25)
(4.49450067918e-06 -9.84788437569e-05 0)
(4.2036046006e-06 -8.48087585938e-05 -2.50061501059e-25)
(3.90581314599e-06 -7.17411082473e-05 -5.34573149874e-26)
(3.60208253012e-06 -5.92493977248e-05 1.35406549001e-25)
(3.29337448833e-06 -4.73087418409e-05 0)
(2.98047412704e-06 -3.58951265556e-05 8.16114603288e-26)
(2.66398816322e-06 -2.49857367573e-05 0)
(2.34998860749e-06 -1.45582265675e-05 -6.66499416525e-26)
(2.00280723023e-06 -4.57755595797e-06 0)
(0.0323875186379 -0.324029062461 -3.32068462856e-24)
(0.031495030818 -0.320409569356 -7.26650815043e-24)
(0.0314197284395 -0.314143995712 -3.67715940538e-24)
(0.030436241791 -0.30875079416 0)
(0.0302553321926 -0.302864408934 0)
(0.0294487041983 -0.297308651159 3.21223647744e-24)
(0.0290912130506 -0.291611852763 1.52574996426e-26)
(0.0284372781955 -0.286044844012 -3.27762801159e-24)
(0.0279719548502 -0.280462511814 0)
(0.0273977521113 -0.274943399446 -2.81409177395e-24)
(0.0268886574043 -0.269450073678 -4.94047476715e-24)
(0.0263481513345 -0.264003256266 -2.62688112033e-24)
(0.0258280484493 -0.258595495546 -2.53621433876e-24)
(0.0253021939848 -0.253232538301 -2.44784137311e-24)
(0.0247837930502 -0.247914135532 2.5997908692e-24)
(0.0242669266499 -0.242642649132 2.27696603292e-24)
(0.0237546197164 -0.237419303056 0)
(0.0232458546704 -0.232245755005 -2.33990929681e-24)
(0.0227413678905 -0.227123448069 3.1462479335e-34)
(0.0222411511425 -0.222053861246 1.95965416757e-24)
(0.0217454908948 -0.21703840765 -4.25948872441e-25)
(0.0212545497992 -0.212078467234 -4.17546269351e-25)
(0.0207685291465 -0.207175370083 -1.71105871409e-26)
(0.02028760701 -0.202330397987 0)
(0.0198119604008 -0.197544780009 3.21669568886e-24)
(0.0193417571663 -0.192819690346 2.71884434635e-24)
(0.0188771583187 -0.188156245783 0)
(0.0184183168552 -0.183555503696 -3.68033042217e-25)
(0.0179653777264 -0.179018460131 2.7250457765e-24)
(0.017518477831 -0.174546048152 1.93327600303e-24)
(0.0170777457331 -0.170139136461 -3.19477191827e-25)
(0.0166433012872 -0.165798528273 -2.39561049555e-24)
(0.0162152558684 -0.161524960398 -2.29299831464e-24)
(0.015793712165 -0.157319102424 -6.19833061192e-25)
(0.0153787639819 -0.153181556266 -6.26120180891e-25)
(0.0149704963929 -0.149112855921 -2.59724612819e-24)
(0.0145689856519 -0.145113467248 -1.32076189715e-24)
(0.0141742992562 -0.14118378811 5.814056657e-25)
(0.0137864960086 -0.137324148684 1.74850310365e-24)
(0.0134056259765 -0.133534811834 2.78543381799e-24)
(0.0130317307666 -0.129815973817 1.06973105826e-24)
(0.0126648435929 -0.126167765058 0)
(0.0123049893365 -0.122590251071 0)
(0.0119521848957 -0.119083433643 1.46426701859e-24)
(0.0116064392675 -0.115647252003 -4.57974008068e-25)
(0.0112677537081 -0.112281584189 -7.81777511681e-25)
(0.0109361221028 -0.108986248609 -1.19243890157e-24)
(0.0106115310728 -0.105761005558 0)
(0.0102939602425 -0.102605558907 -2.15954163973e-24)
(0.00998338262753 -0.0995195579992 -4.10788423287e-24)
(0.00967976474801 -0.0965025994559 -1.31595782875e-34)
(0.0093830669362 -0.0935542291348 7.7509196566e-25)
(0.00909324376562 -0.0906739441915 -2.53385444209e-24)
(0.00881024417663 -0.0878611950857 -7.47596810268e-25)
(0.00853401174855 -0.0851153877186 0)
(0.00826448514227 -0.0824358856422 0)
(0.00800159830807 -0.0798220121727 1.33681318119e-24)
(0.00774528071578 -0.0772730525808 6.97720566977e-25)
(0.00749545774047 -0.0747882563696 2.54667241716e-24)
(0.00725205091427 -0.0723668394641 6.21492432045e-25)
(0.00701497816143 -0.0700079863953 0)
(0.00678415414495 -0.0677108525404 4.68028390897e-26)
(0.00655949051549 -0.0654745662974 -1.58421604785e-24)
(0.00634089610591 -0.0632982312185 0)
(0.00612827724229 -0.0611809281736 2.09741563312e-24)
(0.00592153804392 -0.0591217174605 0)
(0.00572058060646 -0.0571196408336 0)
(0.00552530520749 -0.0551737235255 -7.90121543288e-25)
(0.00533561057213 -0.0532829762474 -1.65821701666e-24)
(0.00515139410424 -0.0514463970963 2.30779054847e-24)
(0.00497255207083 -0.0496629733901 4.38758451214e-24)
(0.00479897979962 -0.0479316834857 2.09763671572e-24)
(0.00463057188329 -0.0462514985528 0)
(0.00446722236251 -0.0446213842573 7.7914928181e-25)
(0.00430882489691 -0.0430403023662 -7.52248547259e-25)
(0.00415527293652 -0.0415072123004 1.43251344265e-24)
(0.00400645988437 -0.0400210726419 0)
(0.00386227924438 -0.0385808425737 1.33464441728e-24)
(0.00372262475904 -0.0371854832408 -6.52195903292e-25)
(0.00358739054441 -0.0358339590345 0)
(0.00345647122389 -0.0345252388138 4.47759067391e-25)
(0.00332976205253 -0.0332582970705 1.15550402861e-24)
(0.0032071590272 -0.0320321150335 -4.60242846014e-25)
(0.00308855898649 -0.0308456817023 -1.70221932002e-24)
(0.00297385970738 -0.0296979948079 -5.92010567918e-25)
(0.00286296000106 -0.0285880617096 9.97102907161e-25)
(0.00275575980173 -0.0275149002366 -2.44615544288e-24)
(0.00265216024355 -0.026477539473 -9.8865628381e-25)
(0.00255206372883 -0.0254750204816 -2.21649122796e-24)
(0.00245537399389 -0.0245063969642 8.7568644797e-25)
(0.00236199617148 -0.0235707358648 -9.8700403472e-27)
(0.0022718368455 -0.0226671179217 7.74936028376e-25)
(0.00218480409904 -0.0217946381693 -3.02978864302e-24)
(0.00210080756057 -0.0209524063861 -6.85171863671e-25)
(0.00201975844388 -0.0201395474902 -1.42786740133e-24)
(0.00194156957743 -0.0193552018912 0)
(0.00186615543013 -0.0185985257958 -1.31994266438e-24)
(0.00179343213922 -0.0178686914709 1.80298393032e-24)
(0.00172331754064 -0.0171648874658 5.01725829179e-25)
(0.00165573117657 -0.0164863187844 0)
(0.00159059425913 -0.0158322070472 0)
(0.00152782994698 -0.0152017905734 0)
(0.0014673628694 -0.0145943243613 1.03858170843e-24)
(0.00140911733894 -0.0140090807659 -1.98034044841e-24)
(0.00135303275736 -0.0134453478489 0)
(0.00129901240951 -0.0129024328566 9.06715286038e-25)
(0.0012468641554 -0.0123796730404 0)
(0.00119647231146 -0.0118764186368 -5.6487678719e-25)
(0.00114781763412 -0.0113920206763 -5.29429226815e-25)
(0.00110084890461 -0.0109258485566 -1.26640704597e-24)
(0.00105551859749 -0.010477286167 -1.48748129297e-24)
(0.00101178729821 -0.0100457395039 4.35468171909e-25)
(0.000969615312333 -0.00963062581312 0)
(0.000928955639444 -0.0092313813907 0)
(0.00088976109979 -0.00884745993401 -1.25883812955e-24)
(0.000851990757669 -0.00847832383441 -1.54182131187e-24)
(0.000815607603311 -0.00812344550587 -1.47653176154e-24)
(0.000780571763856 -0.00778232894048 8.21133960325e-25)
(0.00074684197983 -0.00745448816134 7.93353890314e-25)
(0.000714372292678 -0.00713945127797 2.56990550223e-25)
(0.000683127945176 -0.00683674739043 2.40457096209e-25)
(0.00065307780083 -0.00654594352906 7.05181956067e-25)
(0.000624185196424 -0.00626659092588 -2.42118989171e-24)
(0.000596404820222 -0.00599829418757 -2.10761604232e-24)
(0.000569695465464 -0.00574063472444 -8.23956957024e-25)
(0.000544036249544 -0.00549322890883 -7.88666785008e-25)
(0.000519390712713 -0.00525568922207 0)
(0.000495725036093 -0.00502763784557 -1.73990458079e-24)
(0.000473000453075 -0.00480874253484 -2.81521769237e-25)
(0.000451187208827 -0.00459864305599 9.19275545561e-25)
(0.000430259858125 -0.00439701400462 4.92144255667e-25)
(0.00041018479034 -0.00420353227292 -7.44603851036e-25)
(0.000390933101951 -0.00401789264874 -2.82527764038e-35)
(0.000372478300189 -0.00383978875569 1.46707865956e-25)
(0.000354794029674 -0.00366893889419 -1.87925675981e-25)
(0.000337848654574 -0.00350505699997 0)
(0.000321616970318 -0.00334787478985 0)
(0.000306073470051 -0.00319713723303 0)
(0.00029119522874 -0.0030525898758 -1.75371344382e-24)
(0.000276960236459 -0.00291399206465 2.68331679953e-25)
(0.000263342442849 -0.00278110944632 -2.14945440216e-24)
(0.000250318338228 -0.00265371957896 0)
(0.000237865372548 -0.00253160488682 -1.45622446885e-24)
(0.000225962256854 -0.00241455359028 0)
(0.000214589696652 -0.00230236747737 1.91805499962e-25)
(0.000203727461488 -0.00219484875757 1.79392296012e-25)
(0.000193356896649 -0.00209181706907 0)
(0.000183457861299 -0.00199308936409 1.14822206631e-24)
(0.000174013700186 -0.00189849367087 5.48220531033e-25)
(0.000165006508128 -0.00180786167168 0)
(0.00015641767292 -0.00172103434159 4.97231711295e-25)
(0.000148230621273 -0.00163785802852 0)
(0.000140431058666 -0.00155818549193 8.99075059521e-25)
(0.000133002813271 -0.0014818735152 0)
(0.000125930198355 -0.00140878220321 1.97635077345e-25)
(0.000119199625568 -0.00133878239382 9.58335895922e-25)
(0.00011279546405 -0.00127174605065 1.73344689562e-25)
(0.000106705412506 -0.00120755360087 1.62361818334e-25)
(0.000100916666465 -0.0011460874891 -3.31860313531e-25)
(9.54161899475e-05 -0.00108723330374 6.28756298984e-25)
(9.01921795362e-05 -0.00103088451847 2.98671010491e-25)
(8.52322366443e-05 -0.000976937422436 0)
(8.05257611999e-05 -0.000925292029551 -1.17395522595e-25)
(7.60615289097e-05 -0.000875851402525 3.3948148486e-26)
(7.18287204713e-05 -0.000828525570169 -2.40363002378e-25)
(6.78166929327e-05 -0.000783225186077 -1.03843161853e-24)
(6.4015932992e-05 -0.000739867519234 6.43046352329e-25)
(6.04191337383e-05 -0.00069837015897 -8.49193746569e-26)
(5.70175445302e-05 -0.000658654976337 7.96227080077e-25)