/*--------------------------------*- C++ -*----------------------------------*\
| =========                 |                                                 |
| \\      /  F ield         | OpenFOAM: The Open Source CFD Toolbox           |
|  \\    /   O peration     | Version:  2412                                  |
|   \\  /    A nd           | Website:  www.openfoam.com                      |
|    \\/     M anipulation  |                                                 |
\*---------------------------------------------------------------------------*/
FoamFile
{
    version     2.0;
    format      ascii;
    arch        "LSB;label=32;scalar=64";
    class       surfaceScalarField;
    location    "2";
    object      meshPhi;
}
// * * * * * * * * * * * * * * * * * * * * * * * * * * * * * * * * * * * * * //

dimensions      [0 3 -1 0 0 0 0];

oriented        oriented;

internalField   nonuniform List<scalar> 
127680
(
4.29605190732e-05
0.00198966930307
-0.00199005290535
4.33530997254e-05
0.00203625025227
-0.00203664283293
4.37548734451e-05
0.00208392172371
-0.00208432349743
4.41660544871e-05
0.00213270925388
-0.00213312043492
4.45868593146e-05
0.00218263896857
-0.0021830597734
4.5017515435e-05
0.00223373760765
-0.00223416826377
4.54582547736e-05
0.00228603253607
-0.00228647327541
4.59093114641e-05
0.00233955176374
-0.00234000282043
4.63709306843e-05
0.00239432394998
-0.0023947855692
4.68433554036e-05
0.00245037842999
-0.00245085085471
4.73268396349e-05
0.00250774522593
-0.00250822871016
4.7821644018e-05
0.00256645505791
-0.00256694986229
4.83280336099e-05
0.00262653936836
-0.00262704575795
4.8846275677e-05
0.00268803033742
-0.00268854857948
4.93766507375e-05
0.00275096089845
-0.00275149127352
4.99194437286e-05
0.00281536474907
-0.00281590754206
5.04749462129e-05
0.00288127638426
-0.00288183188674
5.10434519622e-05
0.00294873110522
-0.00294929961097
5.16252657922e-05
0.00301776503483
-0.00301834684866
5.22207013542e-05
0.00308841514636
-0.00308901058192
5.28300767164e-05
0.00316071927453
-0.00316132864989
5.34537209919e-05
0.00323471614418
-0.00323533978846
5.40919632933e-05
0.00331044538359
-0.00331108362589
5.4745148195e-05
0.00338794755313
-0.00338860073803
5.54136268976e-05
0.00346726415414
-0.00346793263284
5.60977528109e-05
0.00354843767086
-0.00354912179677
5.6797897015e-05
0.00363151157047
-0.00363221171468
5.75144327987e-05
0.00371653034946
-0.00371724688524
5.82477422863e-05
0.0038035395358
-0.00380427284529
5.89982208546e-05
0.00389258572878
-0.00389333620735
5.97662660897e-05
0.00398371661881
-0.00398448466405
6.05522954565e-05
0.00407698101176
-0.00407776704112
6.13567242111e-05
0.00417242885323
-0.00417323328199
6.21799874896e-05
0.00427011126173
-0.00427093452501
6.30225248447e-05
0.00437008055292
-0.00437092309027
6.3884786874e-05
0.00447239026614
-0.00447325252817
6.47672352188e-05
0.00457709519535
-0.0045779776437
6.56703447732e-05
0.00468425140899
-0.00468515451855
6.65945948486e-05
0.00479391630298
-0.00479484055306
6.75404846369e-05
0.00490614860517
-0.00490709449496
6.85085177459e-05
0.00502100842391
-0.00502197645702
6.94992154553e-05
0.00513855727013
-0.00513954796784
7.05131056706e-05
0.00525885809935
-0.00525987198957
7.15507339682e-05
0.00538197534255
-0.00538301297085
7.26126503413e-05
0.00550797493272
-0.0055090368491
7.36994312898e-05
0.0056369243468
-0.00563801112775
7.48116555213e-05
0.00576889264985
-0.00577000487408
7.59499172066e-05
0.00590395051497
-0.00590508877666
7.71148281851e-05
0.00604217027406
-0.00604333518504
7.83070113422e-05
0.00618362595318
-0.00618481813634
7.95271050232e-05
0.00632839330569
-0.00632961339937
8.07757608278e-05
0.00647654986744
-0.00647779852324
8.20536524426e-05
0.00662817497889
-0.0066294528705
8.33614579723e-05
0.00678334985136
-0.00678465765689
8.46998820275e-05
0.00694215758029
-0.00694349600434
8.60696424715e-05
0.00710468322253
-0.00710605298298
8.74714704206e-05
0.00727101381846
-0.00727241564641
8.89061168696e-05
0.00744123844718
-0.00744267309363
9.03743482758e-05
0.00761544827291
-0.00761691650432
9.18769553937e-05
0.00779373659358
-0.0077952392007
9.34147400211e-05
0.00797619889604
-0.00797773668067
9.4988526044e-05
0.00816293289585
-0.00816450668187
9.65991572281e-05
0.00835403859909
-0.00835564923027
9.82474972179e-05
0.00854961835539
-0.00855126669538
9.99344229112e-05
0.00874977691096
-0.00875146383665
0.000101660844338
0.00895462145491
-0.00895634787634
0.000103427682571
0.00916426169886
-0.00916602853709
0.0001052358874
0.0093788099144
-0.00938061811923
0.000107086424074
0.00959838100384
-0.00960023154052
0.00010898028214
0.00982309256202
-0.00982498642009
0.000110918479861
0.0100530649315
-0.0100550031293
0.000112902053166
0.0102884212779
-0.0102904048512
0.000114932064495
0.0105292876445
-0.0105313176558
0.000117009602791
0.0107757930304
-0.0107778705687
0.000119135779085
0.0110280694562
-0.0110301956325
0.000121311730914
0.0112862520237
-0.0112884279755
0.00012353862453
0.0115504790088
-0.0115527059024
0.00012581765269
0.0118208919168
-0.0118231709449
0.000128150036868
0.0120976355704
-0.0120999679546
0.00013053702504
0.0123808581809
-0.0123832451691
0.000132979896107
0.0126707114317
-0.0126731543028
0.000135479957684
0.0129673505513
-0.0129698506128
0.00013803855052
0.0132709344083
-0.0132734930011
0.000140657044077
0.0135816255911
-0.0135842440847
0.00014333683653
0.0138995904893
-0.0139022702818
0.000146079372445
0.014224999389
-0.0142277419249
0.00014888611184
0.0145580265719
-0.0145608333113
0.00015175855892
0.0148988503861
-0.0149017228332
0.000154698255431
0.0152476533633
-0.0152505930598
0.000157706774046
0.015604622307
-0.0156076308256
0.000160785727198
0.015969948394
-0.0159730273472
0.000163936762658
0.0163438272787
-0.0163469783142
0.000167161570166
0.0167264591896
-0.0167296839971
0.000170461872595
0.0171180490513
-0.0171213493538
0.000173839441409
0.0175188065815
-0.0175221841503
0.000177296081207
0.017928946408
-0.0179324030478
0.000180833649595
0.0183486881794
-0.0183522257478
0.000184454035113
0.0187782566973
-0.0187818770828
0.000188159177091
0.019217882018
-0.01922158716
0.000191951063455
0.0196677995787
-0.0196715914651
0.000195831724108
0.0201282503429
-0.0201321310036
0.000199803237536
0.0205994809065
-0.02060345242
0.000203867726408
0.0210817436372
-0.0210858081261
0.000208027370819
0.0215752968155
-0.0215794564599
0.000212284401665
0.0220804047631
-0.0220846617939
0.000216634936505
0.0225970169763
-0.0226013736046
0.000221069736993
0.0231244736001
-0.0231289319224
0.000225588670484
0.0236622960095
-0.023666858022
0.000230191592465
0.0242104869755
-0.0242151546764
0.000234878176874
0.024769037327
-0.0247738127151
0.000239647894737
0.0253379157344
-0.0253428008014
0.000244499991483
0.025917066516
-0.0259220632382
0.000249433482726
0.0265064073108
-0.02651151766
0.00025444710669
0.0271058265871
-0.0271110524996
0.000259539323597
0.0277151809444
-0.0277205243375
0.000264708284793
0.0283342922679
-0.0283397550273
0.000269951793653
0.0289629446784
-0.0289685286383
0.000275267293248
0.0296008812565
-0.0296065882078
0.000280651830364
0.0302478006033
-0.0302536322791
0.000286102021831
0.0309033531466
-0.0309093112111
0.000291614021348
0.0315671372301
-0.0315732232691
0.000297183486322
0.0322386949833
-0.0322449104963
0.000302805538429
0.0329175079362
-0.0329238543225
0.000308474722028
0.0336029924086
-0.0336094709534
0.000314184967107
0.0342944946339
-0.0343011064992
0.000319929537074
0.0349912856477
-0.0349980318496
0.000325700998243
0.0356925559206
-0.035699437329
0.000331491148566
0.0363974097527
-0.0364044270512
0.000337290993771
0.0371048594123
-0.0371120131067
0.000343090676576
0.037813819065
-0.0378211094448
0.000348879429946
0.0385230984516
-0.0385305255769
0.000354645526474
0.0392313963959
-0.0392389600796
0.000360376211734
0.0399372941128
-0.0399449938881
0.000366057663769
0.0406392483596
-0.0406470834722
0.00037167491635
0.0413355844982
-0.041343553862
0.000377211813173
0.0420244894488
-0.0420325916319
0.00038265094366
0.0427040046497
-0.0427122378397
0.000387973593661
0.0433720190535
-0.0433803810362
0.000393159687475
0.0440262622363
-0.0440347503622
0.000398187700444
0.04466429774
-0.0446729088583
0.000403034700238
0.0452835166365
-0.0452922471529
0.000407676179656
0.0458811317068
-0.0458899774278
0.00041208612668
0.046454171926
-0.0464631281332
0.00041623692978
0.0469994779761
-0.0470085393281
0.000420099333254
0.0475136983647
-0.0475228588395
0.000423642515843
0.047993286964
-0.0480025399135
0.000426833992535
0.0484345015743
-0.0484438395894
0.000429639664903
0.0488334045491
-0.0488428194576
0.00043202390399
0.0491858647233
-0.0491953476036
0.000433949492726
0.0494875623396
-0.0494971033738
0.000435377807761
0.0497339958712
-0.049743584415
0.000436268901162
0.0499204925069
-0.0499301170336
0.000436581518098
0.050042221705
-0.0500518696563
0.000436273532779
0.0500942128981
-0.0501038709201
0.00043530181485
0.0500713779743
-0.0500810315475
0.000433622842194
0.0499685384316
-0.0499781722061
0.000431192739278
0.0497804589566
-0.049790056467
0.000427967787438
0.0495018869961
-0.0495114307981
0.000423904825548
0.0491275999389
-0.0491370715805
0.000418961740847
0.0486524603051
-0.048661840327
0.000413098107068
0.0480714797548
-0.0480807477711
0.000406275810441
0.0473798931325
-0.0473890278282
0.000398459791416
0.0465732430337
-0.0465822221991
0.000389618997175
0.0456474762061
-0.0456562768992
0.000379727260185
0.0445990524216
-0.0446076509677
0.000368764474031
0.0434250669789
-0.0434334391744
0.000356717813627
0.042123387533
-0.0421315087951
0.000343582971552
0.0406928062628
-0.0407006516951
0.000329365801197
0.0391332077116
-0.0391407524732
0.000314083795611
0.0374457533767
-0.0374529727831
0.000297767991084
0.0356330828673
-0.0356399528146
0.000280464735732
0.0336995321367
-0.0337060292922
0.000262237832717
0.0316513681953
-0.0316574704734
0.000243170658971
0.0294970398883
-0.0295027268208
0.000223368450622
0.027247443385
-0.0272526965959
0.000202960718475
0.0249162005688
-0.0249210043351
0.000182103634997
0.0225199479069
-0.0225242896762
0.000160982586279
0.0200786320729
-0.0200825031659
0.000139814618883
0.0176158081543
-0.0176192044239
0.000118850874823
0.0151589345046
-0.0151618570998
9.83788806505e-05
0.0127396573566
-0.0127421135194
7.87246610202e-05
0.0103940765573
-0.0103960804992
6.02545262593e-05
0.00816298215641
-0.00816455595282
4.33764556819e-05
0.00609204965668
-0.00609322418359
2.85409557405e-05
0.00423197967147
-0.00423279558325
1.62412209079e-05
0.00263856559946
-0.00263907430615
7.01244605488e-06
0.0013726705559
-0.0013729352019
1.43009952649e-06
0.00050009251591
-0.000500188932159
0
8.50747291182e-05
-8.50911312379e-05
0
0
0
0
0
0
0
0
0
0
0
0
0
0
0
0
0
0
0
0
0
0
0
0
0
0
0
0
0
0
0
0
0.000128864993353
0.00198851864576
0.000130042589528
0.0020350726561
0.000131247753862
0.00208271655938
0.000132481131327
0.00213147587641
0.000133743386775
0.00218137671312
0.000135035193893
0.00223244580053
0.00013635724183
0.00228471048813
0.000137710241823
0.00233819876375
0.000139094916153
0.00239293927565
0.000140512009188
0.00244896133696
0.000141962276342
0.00250629495877
0.000143446499534
0.00256497083472
0.000144965467308
0.00262502040058
0.000146519996925
0.0026864758078
0.000148110921105
0.00274936997427
0.00014973909245
0.00281373657773
0.000151405379022
0.00287961009769
0.000153110675389
0.00294702580885
0.000154855895998
0.00301601981422
0.000156641977385
0.00308662906498
0.000158469871547
0.00315889138037
0.000160340556987
0.00323284545875
0.000162255038713
0.00330853090187
0.000164214343822
0.00338598824802
0.000166219514873
0.00346525898309
0.000168271634182
0.00354638555155
0.000170371792902
0.00362941141175
0.000172521119734
0.00371438102262
0.000174720767678
0.00380133988786
0.000176971909611
0.00389033458685
0.000179275755962
0.00398141277246
0.000181633539246
0.00407462322847
0.000184046522904
0.00417001586957
0.00018651599467
0.00426764178996
0.000189043279832
0.00436755326775
0.00019162973239
0.00446980381358
0.000194276739476
0.00457444818827
0.000196985714729
0.00468154243374
0.000199758111546
0.00479114390617
0.000202595414248
0.00490331130247
0.000205499144704
0.00501810469345
0.000208470851291
0.00513558556355
0.000211512130978
0.00525581681966
0.000214624611658
0.00537886286187
0.000217809963192
0.00550478958119
0.000221069884154
0.00563366442584
0.000224406126131
0.00576555640787
0.000227820471633
0.00590053616947
0.000231314753972
0.00603867599172
0.000234890841801
0.00618004986535
0.00023855065016
0.00632473349733
0.000242296142679
0.00647280437492
0.000246129318332
0.00662434180323
0.000250052237939
0.00677942693175
0.000254066997661
0.00693814282056
0.000258175746669
0.00710057447352
0.000262380687148
0.00726680887798
0.000266684074293
0.00743693506004
0.000271088207475
0.00761104413973
0.000275595447912
0.00778922935314
0.000280208207623
0.00797158613633
0.000284928962687
0.00815821214078
0.000289760233355
0.00834920732842
0.000294704610561
0.00854467397819
0.000299764744877
0.00874471677664
0.000304943344304
0.00894944285548
0.0003102431809
0.00915896186226
0.000315667092985
0.00937338600232
0.000321217987353
0.00959283010947
0.000326898837063
0.00981741171231
0.000332712681436
0.0100472510872
0.000338662639314
0.01028247132
0.000344751891382
0.0105231983924
0.000350983700053
0.0107695612218
0.000357361407258
0.011021691749
0.000363888423397
0.0112797250075
0.000370568247228
0.011543799185
0.000377404454812
0.0118140557092
0.000384400708358
0.0120906393169
0.000391560751799
0.0123736981375
0.000398888424045
0.0126633837594
0.000406387647945
0.0129598513274
0.000414062436906
0.0132632596193
0.000421916903732
0.0135737711243
0.000429955256207
0.0138915521369
0.000438181794884
0.0142167728503
0.000446600930757
0.014549607436
0.000455217172006
0.0148902341448
0.00046403512842
0.0152388354069
0.00047305952685
0.0155955979085
0.000482295200174
0.0159607127207
0.000491747091709
0.0163343753872
0.000501420266256
0.0167167860151
0.000511319901266
0.0171081494163
0.000521451302301
0.0175086751805
0.000531819896409
0.0179185778139
0.000542431229908
0.0183380768459
0.000553290990487
0.0187673969367
0.000564404996152
0.0192067680124
0.000575779193018
0.0196564253819
0.000587419675192
0.0201166098607
0.000599332678148
0.0205875679036
0.000611524580927
0.0210695517344
0.000624001914981
0.0215628194814
0.000636771359751
0.0220676353183
0.00064982129236
0.0225839487658
0.000663123982373
0.0231111003537
0.000676679039446
0.023648611732
0.000690486035442
0.0241964856678
0.00070454398003
0.0247547130056
0.00071885129189
0.0253232624196
0.000733405719637
0.0259020782679
0.000748204285069
0.0264910782396
0.000763243226425
0.0270901508618
0.000778517921637
0.0276991528172
0.000794022804582
0.0283179061034
0.000809751309315
0.0289461949516
0.000825695760659
0.0295837626007
0.000841847292432
0.0302303078277
0.000858195764273
0.0308854812514
0.000874729637777
0.0315488814592
0.000891435888089
0.032220050838
0.000908299876847
0.0328984712238
0.000925305244926
0.0335835592687
0.000942433777274
0.0342746615883
0.000959665278873
0.0349710496364
0.000976977429282
0.0356719143566
0.000994345652685
0.0363763605578
0.00101174294976
0.0370834010896
0.00102913975827
0.03779195074
0.0010465037891
0.0385008199367
0.00106379985341
0.0392087082628
0.00108098970692
0.0399141977482
0.00109803187192
0.0406157460434
0.00111488146334
0.04131167948
0.00113149001615
0.0420001860262
0.00114780531097
0.0426793082533
0.00116377120417
0.0433469363339
0.00117932745223
0.044000801165
0.00119440959295
0.0446384676648
0.00120894870267
0.0452573284741
0.00122287138907
0.0458545979164
0.00123609953024
0.0464273067569
0.00124855032418
0.0469722974285
0.00126013607367
0.0474862204437
0.00127076425304
0.0479655316849
0.00128033742291
0.0484064911589
0.0012887533939
0.0488051634178
0.00129590515066
0.0491574197798
0.00130168120069
0.0494589428893
0.0013059656191
0.0497052339125
0.00130863847952
0.0498916227134
0.00130957628608
0.0500132814944
0.0013086523669
0.0500652426375
0.00130573767145
0.0500424208927
0.00130070136717
0.0499396408559
0.00129341198788
0.0497516701328
0.0012837383658
0.0494732592791
0.00127155103615
0.0490991886758
0.00125672373264
0.0486243238109
0.00123913511046
0.0480436792603
0.00121867082268
0.0473524925951
0.00119522577073
0.0465463090073
0.00116870676226
0.0456210775538
0.001139035375
0.0445732600877
0.00110615128317
0.0433999535799
0.00107001590546
0.0420990269184
0.00103061646463
0.0406692729687
0.00098797039736
0.0391105763727
0.000942130309353
0.0374240979034
0.000893189164662
0.0356124756953
0.000841286078817
0.0336800431653
0.000786612399783
0.0316330637105
0.00072941822259
0.0294799812897
0.000670019255056
0.0272316857541
0.000608803902616
0.0249017911457
0.000546240702524
0.0225069242633
0.000482885700167
0.0200670202853
0.000419389957683
0.017605620656
0.000356506798377
0.0151501678547
0.000295098710141
0.0127322898132
0.000236143634854
0.0103880654976
0.00018074034963
0.00815826137571
0.00013011264381
0.00608852652921
8.56118632583e-05
0.00422953225086
4.87174007026e-05
0.00263703967532
2.10346350141e-05
0.00137187671885
4.28974717684e-06
0.00049980330466
0
8.50255290397e-05
0
0
0
0
0
0
0
0
0
0
0
0
0
0
0
0
0
0
0
0
0
0.000214719787076
0.00198660137784
0.00021668194155
0.00203311050162
0.000218690032648
0.00208070846828
0.000220745138268
0.00212942077079
0.000222848353981
0.00217927349741
0.000225000810697
0.00223029334382
0.000227203659207
0.00228250763962
0.000229458079015
0.00233594434394
0.000231765278339
0.00239063207633
0.000234126489697
0.0024466001256
0.000236542985362
0.00250387846311
0.000239016048654
0.00256249777143
0.000241547013693
0.00262248943554
0.000244137232272
0.00268388558922
0.000246788091523
0.00274671911502
0.000249501009502
0.00281102365975
0.000252277439607
0.00287683366758
0.000255118872783
0.00294418437567
0.000258026828693
0.00301311185831
0.00026100286013
0.00308365303354
0.000264048566272
0.00315584567422
0.000267165577222
0.0032297284478
0.000270355562839
0.00330534091625
0.000273620228325
0.00338272358254
0.000276961325267
0.00346191788614
0.000280380640592
0.00354296623623
0.000283880007612
0.00362591204473
0.000287461301606
0.00371079972863
0.000291126435406
0.00379767475406
0.000294877379268
0.00388658364299
0.000298716134376
0.00397757401735
0.000302644761548
0.0040706946013
0.000306665361364
0.00416599526976
0.00031078009183
0.0042635270595
0.000314991152922
0.00436334220666
0.000319300802043
0.00446549416446
0.000323711345192
0.00457003764512
0.000328225145794
0.00467702863314
0.000332844620289
0.00478652443167
0.000337572242543
0.00489858368022
0.000342410543854
0.00501326639214
0.000347362119571
0.00513063398783
0.00035242961806
0.00525074932117
0.000357615751739
0.0053736767282
0.0003629233015
0.00549948203143
0.000368355107872
0.00562823261946
0.000373914079858
0.00575999743589
0.000379603199353
0.00589484704997
0.000385425503469
0.00603285368761
0.000391384119882
0.00617409124894
0.000397482233697
0.00631863538352
0.000403723113951
0.00646656349466
0.000410110102575
0.00661795481461
0.000416646618807
0.00677289041552
0.000423336161402
0.00693145327797
0.000430182319676
0.00709372831525
0.000437188753627
0.00725980244403
0.000444359218234
0.00742976459543
0.000451697554616
0.00760370580335
0.000459207690037
0.00778171921772
0.00046689365116
0.0079639001752
0.000474759548578
0.00815034624337
0.000482809598912
0.00834115727809
0.000491048111548
0.00853643546555
0.000499479501899
0.00873628538629
0.000508108278146
0.00894081407924
0.000516939069954
0.00915013107045
0.000525976601969
0.0093643484703
0.000535225715903
0.00958358099554
0.000544691363907
0.00980794606431
0.000554378615201
0.0100375638359
0.000564292658279
0.0102725572769
0.000574438805331
0.0105130522454
0.00058482248561
0.0107591775415
0.00059544926311
0.0110110649715
0.000606324829934
0.0112688494407
0.000617455008506
0.0115326690064
0.000628845760404
0.0118026649573
0.000640503181944
0.0120789818953
0.000652433524058
0.0123617677954
0.000664643172417
0.0126511741111
0.000677138662889
0.0129473558369
0.000689926692588
0.0132504715896
0.000703014106614
0.0135606837102
0.000716407915731
0.0138781583278
0.000730115294155
0.0142030654719
0.000744143579554
0.0145355791506
0.000758500286296
0.0148758774381
0.000773193107671
0.0152241425855
0.000788229904832
0.0155805611114
0.000803618735518
0.01594532389
0.000819367840799
0.0163186262819
0.000835485653913
0.016700668202
0.000851980809099
0.0170916542611
0.00086886213718
0.0174917938524
0.000886138681023
0.0179013012701
0.000903819693332
0.0183203958336
0.00092191464328
0.0187493019867
0.000940433220916
0.0191882494347
0.000959385343794
0.019637473259
0.000978781163606
0.0200972140409
0.000998631068388
0.0205677179988
0.00101894568473
0.0210492371181
0.00103973589543
0.0215420292707
0.0010610128351
0.0220463583786
0.00108275713209
0.0225621740135
0.00110492258389
0.0230888173381
0.00112750853874
0.0236258104652
0.00115051427904
0.0241731561579
0.00117393816891
0.0247308452685
0.0011977775606
0.0252988465046
0.00122202870319
0.0258771042771
0.00124668664213
0.0264655363517
0.00127174510265
0.0270640313675
0.00129719637883
0.0276724461438
0.00132303121452
0.0282906028428
0.00134923864959
0.0289182859173
0.00137580590363
0.0295552388423
0.00140271821101
0.0302011606885
0.00142995865981
0.0308557024163
0.0014575080342
0.0315184629934
0.00148534462718
0.03218898525
0.00151344404982
0.0328667515259
0.00154177904325
0.033551179029
0.00157031925843
0.0342416150095
0.00159903104513
0.0349373316206
0.00162787721966
0.0356375205855
0.00165681681615
0.0363412875857
0.00168580485997
0.0370476464094
0.00171479209122
0.0377555128967
0.0017437247008
0.0384636986255
0.00177254406513
0.039170904427
0.00180118645898
0.0398757136994
0.0018295827654
0.0405765855856
0.00185765820066
0.0412718480223
0.00188533200828
0.0419596907317
0.00191251717916
0.04263815817
0.00193912016278
0.0433051425449
0.00196504060611
0.0439583769257
0.00199017101973
0.044595428631
0.00201439664806
0.0452136927478
0.00203759514883
0.045810386311
0.00205963640358
0.0463825429639
0.00208038236104
0.0469270081914
0.00209968697959
0.0474404356804
0.00211739605138
0.0479192847835
0.00213334726202
0.0483598191034
0.00214737026673
0.0487581069717
0.00215928683682
0.0491100236863
0.00216891107613
0.0494112561013
0.00217604991588
0.0496573096573
0.00218050356919
0.0498435187267
0.00218206616792
0.0499650602173
0.00218052671393
0.050016971264
0.00217567010001
0.0499941715308
0.00216727844422
0.0498914905808
0.0021551326056
0.0497037010875
0.00213901405454
0.0494255586719
0.00211870704994
0.0490518487499
0.00209400120114
0.0485774417341
0.00206469436558
0.0479973570108
0.00203059598412
0.0473068367712
0.00199153096343
0.0465014304778
0.00194734397604
0.0455770911076
0.00189790437128
0.0445302839158
0.00184311164468
0.0433581086655
0.0017829014982
0.0420584363251
0.00171725262593
0.0406300609072
0.00164619413858
0.0390728671452
0.00156981361505
0.0373880147372
0.00148826600181
0.0355781392391
0.00140178309179
0.0336475698948
0.00131068370904
0.031602564081
0.00121538458585
0.0294515575936
0.00111641173819
0.0272054297986
0.00101441239173
0.0248777815942
0.000910167183004
0.0224852237776
0.000804602651783
0.0200476722793
0.000698803614
0.0175886458554
0.000594025285119
0.015135560527
0.000491704777786
0.0127200137283
0.000393471569725
0.0103780496429
0.00030115649331
0.00815039543027
0.000216798672188
0.00608265615769
0.000142649766543
0.00422545426517
8.1174799031e-05
0.00263449712284
3.50487143901e-05
0.00137055399717
7.14774107355e-06
0.000499321409527
0
8.49435500173e-05
0
0
0
0
0
0
0
0
0
0
0
0
0
0
0
0
0
0
0
0
0
0.000300491805641
0.00198391823506
0.000303237763001
0.00203036454426
0.000306048007779
0.0020778982235
0.000308924041966
0.0021265447366
0.000311867411728
0.00217633012765
0.000314879685321
0.00222728107023
0.000317962484011
0.00227942484093
0.000321117455571
0.00233278937238
0.000324346287531
0.00238740324437
0.000327650713807
0.00244329569933
0.000331032497031
0.00250049667988
0.000334493457261
0.0025590368112
0.000338035441063
0.00261894745174
0.000341660348013
0.00268026068227
0.000345370117446
0.00274300934559
0.000349166739501
0.00280722703769
0.000353052246283
0.0028729481608
0.000357028718491
0.00294020790347
0.000361098283209
0.00300904229359
0.000365263122741
0.00307948819401
0.000369525467985
0.00315158332898
0.000373887602852
0.00322536631293
0.000378351857635
0.00330087666147
0.000382920626685
0.00337815481349
0.000387596359573
0.00345724215326
0.000392381556671
0.00353818103913
0.000397278782408
0.003621014819
0.000402290658642
0.0037057878524
0.000407419871284
0.00379254554142
0.000412669163679
0.00388133435059
0.000418041352058
0.00397220182897
0.000423539307874
0.00406519664548
0.00042916597989
0.00416036859774
0.000434924380922
0.00425776865846
0.000440817594468
0.00435744899312
0.00044684877471
0.00445946298422
0.000453021153138
0.00456386526669
0.000459338036338
0.00467071174994
0.00046580280821
0.0047800596598
0.000472418927748
0.00489196756068
0.000479189940094
0.0050064953798
0.000486119472114
0.00512370445581
0.000493211232399
0.00524365756089
0.000500469024521
0.00536641893607
0.000507896727151
0.0054920543288
0.00051549832498
0.00562063102163
0.000523277888848
0.00575221787202
0.000531239577942
0.00588688536088
0.000539387666311
0.00602470559924
0.000547726509728
0.00616575240552
0.000556260581034
0.00631010131221
0.000564994441421
0.00645782963428
0.000573932777983
0.00660901647805
0.000583080370588
0.00676374282291
0.000592442125001
0.00692209152356
0.000602023046385
0.00708414739386
0.000611828274644
0.00724999721577
0.000621863055699
0.00741972981438
0.000632132763587
0.00759343609546
0.000642642902661
0.00777120907864
0.000653399096553
0.00795314398131
0.000664407108048
0.00813933823187
0.000675672834669
0.00832989155147
0.000687202306466
0.00852490599375
0.000699001697066
0.00872448599569
0.000711077332499
0.0089287384438
0.000723435671327
0.00913777273162
0.00073608333777
0.00935170080386
0.000749027104041
0.00957063722927
0.000762273901385
0.00979469926697
0.00077583082671
0.0100240069106
0.000789705135957
0.0102586829677
0.000803904263979
0.0104988531174
0.000818435813503
0.010744645992
0.000833307566165
0.0109961932188
0.000848527486935
0.0112536295199
0.00086410372853
0.0115170927648
0.000880044631418
0.0117867240544
0.000896358734859
0.0120626677919
0.000913054772487
0.0123450717577
0.000930141685567
0.012634087198
0.000947628631822
0.0129298688906
0.000965524967776
0.0132325752537
0.000983840286289
0.0135423683917
0.00100258439006
0.013859414224
0.00102176731813
0.0141838825438
0.00104139934809
0.0145159471206
0.00106149098947
0.0148557857967
0.00108205300579
0.0152035805692
0.00110309640797
0.0155595177092
0.00112463246316
0.0159237878348
0.00114667271017
0.0162965860349
0.00116922894847
0.0166781119637
0.00119231326025
0.0170685699494
0.00121593800822
0.0174681691044
0.00124011584444
0.0178771234339
0.00126485971918
0.0182956519589
0.00129018288086
0.0187239788251
0.0013160988938
0.0191623334218
0.00134262163815
0.0196109505146
0.00136976531658
0.0200700703625
0.00139754446524
0.0205399388501
0.00142597396491
0.0210208076184
0.00145506903869
0.021512934197
0.00148484526532
0.022016582152
0.00151527554509
0.0225317011127
0.00154629521243
0.0230576331449
0.00157790336124
0.0235939009958
0.00161009898063
0.0241405074359
0.00164287978357
0.024697443319
0.00167624206401
0.0252646774028
0.0017101805736
0.0258421541702
0.00174468837525
0.0264297914987
0.00177975669554
0.0270274781726
0.0018153747486
0.0276350712122
0.00185152956876
0.0282523930203
0.00188820583355
0.028879228332
0.00192538564824
0.0295153209776
0.0019630483506
0.0301603704279
0.00200117027624
0.0308140281199
0.00203972453235
0.031475893558
0.00207868073353
0.0321455101988
0.00211800476047
0.0328223610678
0.00215765845636
0.0335058641718
0.00219759935655
0.0341953676327
0.00223778035816
0.0348901446004
0.002278149427
0.0355893878759
0.002318649245
0.0362922043523
0.00235921685901
0.0369976091568
0.00239978333567
0.0377045195848
0.00244027337213
0.0384117488267
0.00248060492964
0.039117999459
0.00252068881975
0.0398218568045
0.00256042832301
0.0405217820806
0.00259971877721
0.0412161054822
0.00263844716978
0.0419030191783
0.0026764917355
0.0425805702647
0.00271372155346
0.0432466537989
0.00274999614839
0.0438990059248
0.0027851651817
0.0445351971959
0.00281906801465
0.0451526262547
0.00285153337246
0.045748513949
0.00288237921973
0.0463198978278
0.00291141239439
0.0468636276728
0.00293842842338
0.0473763617417
0.00296321156184
0.0478545640874
0.00298553465524
0.0482945034093
0.00300515929682
0.0486922533424
0.00302183603376
0.0490436947672
0.00303530478916
0.0493445203227
0.00304529532765
0.049590241552
0.00305152802215
0.0497761991265
0.00305371480659
0.0498975764681
0.0030515604139
0.0499494173846
0.0030447637877
0.0499266484557
0.00303302001224
0.0498241061727
0.00301602236846
0.0496365703419
0.00299346508946
0.0493588035768
0.00296504626321
0.0489855983871
0.00293047142105
0.0485118321212
0.00288945765779
0.0479325308773
0.00284173832594
0.0472429432644
0.00278706838891
0.0464386247545
0.00272523045346
0.0455155338293
0.00265604169873
0.0444701404663
0.00257936144579
0.043299548383
0.0024950997355
0.0420016314087
0.00240322676667
0.0405751851695
0.0023037832279
0.0390200945925
0.00219689172648
0.0373375177773
0.00208276909385
0.0355300867251
0.00196173968944
0.0336021248553
0.00183424973301
0.0315598810557
0.00170088239941
0.0294117797618
0.00156237383919
0.0271686856289
0.00141962979819
0.0248441811935
0.00127374277502
0.0224548548099
0.0011260094133
0.0200205955128
0.000977947868714
0.0175648902955
0.000831314763034
0.0151151181541
0.000688121283011
0.012702833835
0.000550647813628
0.0103640328539
0.000421456536363
0.00813938735138
0.000303401120174
0.00607444080651
0.000199632674942
0.00421974728698
0.000113600903433
0.00263093892086
4.90492820602e-05
0.00136870290111
1.00029793199e-05
0.000498647016575
0
8.48288236523e-05
0
0
0
0
0
0
0
0
0
0
0
0
0
0
0
0
0
0
0
0
0
0.000386147974325