/*--------------------------------*- C++ -*----------------------------------*\
| =========                 |                                                 |
| \\      /  F ield         | OpenFOAM: The Open Source CFD Toolbox           |
|  \\    /   O peration     | Version:  2412                                  |
|   \\  /    A nd           | Website:  www.openfoam.com                      |
|    \\/     M anipulation  |                                                 |
\*---------------------------------------------------------------------------*/
FoamFile
{
    version     2.0;
    format      ascii;
    arch        "LSB;label=32;scalar=64";
    class       volScalarField;
    location    "2";
    object      p;
}
// * * * * * * * * * * * * * * * * * * * * * * * * * * * * * * * * * * * * * //

dimensions      [1 -1 -2 0 0 0 0];

internalField   nonuniform List<scalar> 
64000
(
-0.30366653735
-0.302061002393
-0.300476026484
-0.298910057058
-0.297375231453
-0.295859467895
-0.294373351372
-0.292910461604
-0.29147527329
-0.290065907711
-0.288683807817
-0.287328755755
-0.286001247095
-0.284701438827
-0.283429584428
-0.282185866059
-0.280970455476
-0.279783494087
-0.278625099741
-0.277495365166
-0.27639435937
-0.275322127986
-0.274278693913
-0.273264058146
-0.272278200459
-0.271321080265
-0.270392637568
-0.269492793842
-0.268621452955
-0.2677785021
-0.26696381277
-0.266177241786
-0.265418632324
-0.264687814906
-0.263984608413
-0.263308821093
-0.262660251652
-0.262038690259
-0.261443919458
-0.260875715121
-0.26033384751
-0.259818082242
-0.259328181153
-0.258863903178
-0.258425005354
-0.258011243647
-0.257622373676
-0.257258151483
-0.256918334401
-0.25660268181
-0.256310955807
-0.256042921875
-0.255798349549
-0.255577013053
-0.255378691859
-0.255203171206
-0.255050242631
-0.254919704561
-0.254811362794
-0.254725030839
-0.254660530326
-0.254617691471
-0.254596353474
-0.25459636483
-0.254617583628
-0.254659877857
-0.254723125721
-0.254807215899
-0.254912047793
-0.255037531744
-0.255183589266
-0.255350153258
-0.255537168173
-0.255744590195
-0.255972387422
-0.256220540019
-0.256489040348
-0.256777893107
-0.257087115478
-0.257416737273
-0.257766801046
-0.258137362197
-0.258528489078
-0.258940263113
-0.259372778908
-0.259826144335
-0.260300480648
-0.260795922576
-0.261312618461
-0.261850730362
-0.262410434134
-0.262991919523
-0.263595390287
-0.264221064341
-0.264869173861
-0.26553996539
-0.266233699938
-0.266950653148
-0.267691115433
-0.268455392106
-0.269243803491
-0.270056685068
-0.270894387672
-0.271757277701
-0.272645736923
-0.273557008937
-0.274482746391
-0.275417079248
-0.276359093523
-0.277307904645
-0.278262576475
-0.279222118141
-0.280185482057
-0.28115156058
-0.282119184174
-0.283087118399
-0.28405406102
-0.285018641667
-0.285979415766
-0.286934866718
-0.287883399709
-0.288823340604
-0.289752934821
-0.290670342835
-0.291573643665
-0.292460830484
-0.293329814351
-0.294178418989
-0.295004378529
-0.295805339692
-0.296578860808
-0.297322416976
-0.298033400729
-0.298709132224
-0.299346863228
-0.299943783973
-0.3004970202
-0.301003635316
-0.301460643989
-0.30186502582
-0.302213738245
-0.302503733034
-0.302731978404
-0.302895481152
-0.302991306931
-0.303016608264
-0.302968650855
-0.302844828186
-0.302642701382
-0.302360040689
-0.301994868178
-0.301545508325
-0.301010646284
-0.300389394787
-0.299681350571
-0.298886663835
-0.298006111163
-0.297041179083
-0.295994149608
-0.294868197851
-0.293667499843
-0.292397350963
-0.29106421997
-0.289675935133
-0.288241780779
-0.286772639194
-0.285281127977
-0.283781741213
-0.282290993051
-0.280827559369
-0.279412418947
-0.278069007307
-0.276823348229
-0.275704179196
-0.274743065793
-0.273974499812
-0.27343597647
-0.273168044494
-0.273214323521
-0.273621481448
-0.274439164519
-0.275719871504
-0.277518763323
-0.279893398238
-0.28290338255
-0.28660992638
-0.291075293676
-0.296362135876
-0.302523700588
-0.309335569242
-0.316432099868
-0.32369492445
-0.33112792589
-0.338735078221
-0.346520448961
-0.354488200999
-0.362642595015
-0.370987991652
-0.379528853964
-0.388269749583
-0.321140347144
-0.319732958476
-0.318352663698
-0.316994328982
-0.315672490543
-0.314373856587
-0.313109787201
-0.311873632263
-0.310670117897
-0.30949740772
-0.308357076218
-0.307249007959
-0.30617381442
-0.305131768411
-0.304123242938
-0.303148542664
-0.302207965025
-0.301301780197
-0.300430238115
-0.299593566982
-0.298791974645
-0.298025649084
-0.297294759115
-0.296599455278
-0.295939870671
-0.295316121865
-0.294728309947
-0.294176521437
-0.293660829351
-0.293181294218
-0.29273796513
-0.292330880939
-0.291960071311
-0.291625557853
-0.291327355236
-0.291065472294
-0.290839913242
-0.290650678805
-0.290497767181
-0.29038117521
-0.290300899533
-0.290256937642
-0.29024928889
-0.290277955555
-0.290342943887
-0.29044426512
-0.29058193633
-0.290755981381
-0.290966431927
-0.291213328307
-0.291496720309
-0.291816668069
-0.292173242928
-0.292566528158
-0.292996619704
-0.29346362689
-0.293967673149
-0.29450889677
-0.295087451533
-0.295703507252
-0.296357250404
-0.297048884803
-0.297778632176
-0.298546732628
-0.299353445188
-0.300199048366
-0.301083840655
-0.302008141011
-0.302972289327
-0.303976646902
-0.305021596899
-0.306107544794
-0.307234918834
-0.308404170452
-0.309615774691
-0.310870230634
-0.312168061817
-0.313509816664
-0.314896068913
-0.316327418047
-0.317804489705
-0.319327936113
-0.320898436513
-0.322516697586
-0.324183453891
-0.325899468297
-0.327665532435
-0.329482467194
-0.331351123184
-0.33327238119
-0.33524715265
-0.337276380162
-0.33936103801
-0.341502132699
-0.343700703459
-0.34595782278
-0.348274596997
-0.350652166881
-0.353091708242
-0.355594432495
-0.358161587266
-0.360794457068
-0.363494363994
-0.366262668421
-0.369100769325
-0.372006951469
-0.374973933161
-0.37799693479
-0.381076158025
-0.38421186015
-0.387404273564
-0.390653603242
-0.393960025515
-0.397323685049
-0.400744694312
-0.404223130295
-0.407759033784
-0.411352406451
-0.415003211172
-0.418711369048
-0.422476760194
-0.426299215959
-0.430178524228
-0.434114421562
-0.438106600659
-0.442154706601
-0.44625834398
-0.450417074315
-0.454630401293
-0.458897783802
-0.463218633501
-0.467592321586
-0.472018177312
-0.4764955065
-0.481023599054
-0.485601739026
-0.490229192948
-0.49490520237
-0.499629008719
-0.504399874293
-0.509217090306
-0.514079990629
-0.518987988713
-0.523940596761
-0.528937446724
-0.533978317491
-0.539063186611
-0.544192194386
-0.549365712269
-0.554584388508
-0.559849184889
-0.565161431349
-0.570522885918
-0.575935826209
-0.581403079701
-0.586928108276
-0.592515070786
-0.598168919877
-0.603895478989
-0.609701544493
-0.615595008214
-0.621584986158
-0.627681835267
-0.633897349375
-0.640244883696
-0.646739487701
-0.653398043477
-0.66023941041
-0.667284572631
-0.674556779483
-0.68208167409
-0.689887482553
-0.698005130606
-0.706468371138
-0.715313901849
-0.724581466674
-0.734313935565
-0.744557357933
-0.75536098266
-0.766777238697
-0.77886166812
-0.791672803559
-0.805271981031
-0.819723078351
-0.835092169327
-0.851447082971
-0.868856857021
-0.887391075314
-0.907110080011
-0.927796713243
-0.949092763693
-0.970887467909
-0.993192491287
-1.01601977263
-1.03938153051
-1.0632902698
-1.08775878837
-1.11280018393
-1.13842786103
-1.164655543
-0.338529598017
-0.337321546929
-0.336147133042
-0.334997608229
-0.33388994003
-0.332809596554
-0.331768734949
-0.330760463655
-0.329789762523
-0.32885483684
-0.327957391864
-0.327097414215
-0.326275630656
-0.325492429248
-0.324748302014
-0.324043675527
-0.323378972356
-0.32275459102
-0.322170913042
-0.321628301623
-0.321127102973
-0.32066764691
-0.320250247714
-0.31987520508
-0.319542805007
-0.319253320835
-0.319007014337
-0.318804136731
-0.31864492982
-0.318529627137
-0.318458455096
-0.318431634227
-0.318449380403
-0.318511906038
-0.318619421379
-0.318772135627
-0.318970258235
-0.319214000258
-0.319503575439
-0.319839201384
-0.320221100924
-0.320649503282
-0.321124645223
-0.321646772223
-0.322216139626
-0.322833013815
-0.323497673279
-0.32421040962
-0.324971528711
-0.325781351752
-0.326640216231
-0.327548476901
-0.328506506818
-0.329514698254
-0.330573463603
-0.331683236281
-0.332844471605
-0.334057647662
-0.335323266193
-0.336641853341
-0.338013960428
-0.339440164836
-0.34092107077
-0.342457309956
-0.344049542362
-0.345698456999
-0.347404772627
-0.34916923847
-0.350992634889
-0.352875774105
-0.354819500898
-0.356824693302
-0.358892263308
-0.361023157548
-0.363218357954
-0.365478882467
-0.367805785741
-0.370200159851
-0.372663135007
-0.375195880263
-0.377799604256
-0.380475555934
-0.383225025299
-0.386049344157
-0.388949886869
-0.391928071149
-0.394985358876
-0.398123256911
-0.401343317921
-0.404647141221
-0.408036373628
-0.411512710383
-0.415077896056
-0.418733725467
-0.422482044621
-0.426324751691
-0.430263798047
-0.434301189286
-0.43843898626
-0.442679306132
-0.447024323493
-0.451476271527
-0.4560374432
-0.460710192429
-0.465496934955
-0.470396996249
-0.475404159816
-0.480514736026
-0.485730041551
-0.491051475142
-0.496480436813
-0.502018327279
-0.507666545571
-0.513426489357
-0.519299551932
-0.525287120865
-0.531390578948
-0.537611299365
-0.543950650653
-0.550409994213
-0.556990682019
-0.563694051491
-0.570521430877
-0.577474134583
-0.584553463572
-0.591760709792
-0.599097175531
-0.606564166927
-0.614162954034
-0.621894802839
-0.629760980144
-0.637762751885
-0.645901377087
-0.654178137666
-0.662594362479
-0.671151438322
-0.679850789043
-0.688693823737
-0.697681999783
-0.706816864281
-0.716100042854
-0.725533235251
-0.735118302557
-0.744857262038
-0.754752311596
-0.76480583888
-0.775020585862
-0.78539941152
-0.795945491164
-0.806662357071
-0.817553904792
-0.828624464921
-0.839878842406
-0.851322504167
-0.862961496888
-0.874802602764
-0.8868533517
-0.899122170726
-0.911618418321
-0.924352495042
-0.937335991434
-0.950581920052
-0.964104468327
-0.977919397016
-0.992044131265
-1.00649788617
-1.02130180508
-1.036479109
-1.05205525467
-1.06805807683
-1.08451784507
-1.10146758989
-1.11894313782
-1.13698325418
-1.15562976575
-1.17492766529
-1.19492519457
-1.21567390028
-1.23722865738
-1.2596476525
-1.28299232019
-1.30732722344
-1.33271986974
-1.35924045287
-1.38696151043
-1.41595748648
-1.44630418863
-1.47807812908
-1.51134674055
-1.54590012158
-1.58138748711
-1.6177056739
-1.65487412535
-1.69291274038
-1.73184188399
-1.77168239821
-1.81245561316
-1.85418335858
-1.8968879754
-1.9405923372
-0.355827733677
-0.354820128567
-0.353852713274
-0.352913105398
-0.352020698949
-0.351159733221
-0.350343148361
-0.349563823693
-0.348826983042
-0.348130878475
-0.347477342505
-0.346866464617
-0.346299085849
-0.345775709177
-0.345296944988
-0.344863341248
-0.344475445061
-0.344133782769
-0.343838866937
-0.343591195181
-0.343391251623
-0.343239507469
-0.343136421964
-0.34308244346
-0.343078010408
-0.34312355242
-0.343219491501
-0.343366243169
-0.34356421762
-0.343813821004
-0.34411545664
-0.344469526401
-0.344876432039
-0.345336576427
-0.345850364972
-0.346418206966
-0.347040516864
-0.347717715729
-0.348450232529
-0.34923850542
-0.3500829832
-0.350984126589
-0.351942409476
-0.352958320303
-0.354032363366
-0.35516506001
-0.356356949893
-0.357608592165
-0.358920566731
-0.360293475525
-0.361727943535
-0.36322461995
-0.364784179383
-0.366407322993
-0.368094779468
-0.369847306137
-0.371665690023
-0.373550748902
-0.37550333233
-0.377524322613
-0.379614635772
-0.381775222575
-0.384007069557
-0.386311199905
-0.388688674362
-0.391140592245
-0.393668092429
-0.396272354207
-0.398954598216
-0.401716087391
-0.404558127926
-0.407482070209
-0.410489309739
-0.413581288089
-0.416759493839
-0.42002546354
-0.423380782689
-0.426827086724
-0.43036606202
-0.433999446913
-0.437729032709
-0.441556664733
-0.445484243392
-0.449513725225
-0.453647124032
-0.457886511975
-0.462234020742
-0.466691842719
-0.471262232171
-0.475947506471
-0.480750047342
-0.485672302141
-0.490716785168
-0.495886078991
-0.501182835828
-0.506609778952
-0.512169704141
-0.517865481148
-0.523700055193
-0.529676448509
-0.535797761954
-0.542067176643
-0.548487955624
-0.555063445561
-0.561797078153
-0.568689218722
-0.575734715008
-0.582930966458
-0.59028040388
-0.59778556638
-0.60544902102
-0.613273361923
-0.62126121111
-0.629415218123
-0.637738056278
-0.646232422689
-0.654901039056
-0.663746650281
-0.672772026291
-0.681979971178
-0.691373308223
-0.700954880616
-0.710727553611
-0.72069421917
-0.730857785519
-0.74122117226
-0.751787381161
-0.762559496873
-0.773540533248
-0.784733558645
-0.796141697171
-0.807768115567
-0.819615977836
-0.83168852935
-0.843989135653
-0.85652131302
-0.869288686656
-0.882294784238
-0.895543255072
-0.909037953773
-0.922782857159
-0.93678197402
-0.951039629494
-0.965560346929
-0.980348897689
-0.995410169649
-1.01074988327
-1.02637348911
-1.04228696547
-1.05849675852
-1.07500961584
-1.09183288183
-1.10897450551
-1.12644307964
-1.14424788999
-1.16239900586
-1.18090734811
-1.19978478894
-1.21904423306
-1.23869972378
-1.25876656888
-1.27926147285
-1.30020256488
-1.32160958656
-1.34350402807
-1.36590926459
-1.3888506988
-1.41235590993
-1.43645480614
-1.46117976989
-1.48656579072
-1.51265065977
-1.53947509176
-1.56708285779
-1.59552090819
-1.62483947943
-1.65509217963
-1.68633604759
-1.71863157885
-1.75204271221
-1.78663676894
-1.82248433665
-1.85965908833
-1.89823752765
-1.93829864977
-1.97992350739
-2.02319467158
-2.06819557615
-2.11500073752
-2.16340750363
-2.21307250854
-2.26390018173
-2.31591773723
-2.36915302639
-2.42363455281
-2.47939148759
-2.53645368498
-2.59485169827
-2.6546167962
-2.71578099379
-0.373028319058
-0.372222189621
-0.37146280731
-0.370734143412
-0.370058002425
-0.369417417028
-0.368826088572
-0.368276682796
-0.367774656887
-0.367318314996
-0.366909613363
-0.366548745128
-0.366236664347
-0.365973988676
-0.365761446193
-0.365599705794
-0.36548943851
-0.36543129789
-0.365425926979
-0.36547395725
-0.365576010121
-0.36573269765
-0.365944623552
-0.366212384319
-0.366536570337
-0.366917767012
-0.367356556083
-0.367853516858
-0.368409227427
-0.369024266078
-0.36969921265
-0.370434649906
-0.371231165028
-0.372089350989
-0.373009807975
-0.373993144917
-0.375039980899
-0.376150946654
-0.377326686023
-0.378567857346
-0.379875135028
-0.38124921097
-0.382690795912
-0.384200620954
-0.385779438983
-0.387428026007
-0.389147182565
-0.390937735095
-0.392800537269
-0.394736471386
-0.396746449674
-0.398831415507
-0.400992344799
-0.403230247282
-0.405546167685
-0.40794118695
-0.41041642355
-0.412973034664
-0.415612217361
-0.418335209819
-0.421143292459
-0.424037789157
-0.427020068453
-0.430091544674
-0.43325367903
-0.436507980823
-0.439856008654
-0.443299371561
-0.4468397301
-0.450478797543
-0.454218341096
-0.458060183089
-0.462006202142
-0.466058334333
-0.470218574443
-0.474488977157
-0.478871658346
-0.483368796321
-0.487982633125
-0.492715475831
-0.497569697858
-0.502547740336
-0.507652113475
-0.512885397974
-0.518250246414
-0.52374938474
-0.529385613763
-0.535161810686
-0.541080930666
-0.547146008383
-0.553360159667
-0.559726583175
-0.566248562097
-0.572929465913
-0.579772752168
-0.586781968308
-0.593960753551
-0.601312840823
-0.608842058715
-0.616552333507
-0.624447691246
-0.632532259848
-0.640810271293
-0.649286063827
-0.657964083927
-0.666845735502
-0.67592692916
-0.685206152029
-0.694686947864
-0.704372994613
-0.714268025089
-0.724375824582
-0.734700236612
-0.745245162117
-0.756014553144
-0.767012414614
-0.778242806723
-0.789709841397
-0.801417681033
-0.813370578778
-0.825572835556
-0.838028790078
-0.850742845605
-0.863719470936
-0.87696318559
-0.890478478162
-0.904270057129
-0.918342914852
-0.932701693654
-0.947351269321
-0.962296631727
-0.977542895464
-0.993095059688
-1.00895830815
-1.0251380105
-1.04163985497
-1.05846984597
-1.07563346392
-1.09313649085
-1.11098509651
-1.12918558961
-1.14774444961
-1.1666684243
-1.18596453207
-1.20564008615
-1.22570271128
-1.24616050829
-1.26702182223
-1.28829544028
-1.30999063436
-1.33211716159
-1.35468537962
-1.37770630517
-1.40119166917
-1.42515397918
-1.44960659772
-1.47456382176
-1.50004097428
-1.52605449731
-1.5526220573
-1.57976266076
-1.60749677112
-1.63584640646
-1.66483528185
-1.69448894941
-1.72483493995
-1.75590290895
-1.78772478704
-1.82033493286
-1.85377028462
-1.88807051059
-1.92327817287
-1.95943886963
-1.9966013708
-2.03481774325
-2.0741434599
-2.11463748803
-2.15636235104
-2.19938415746
-2.24377259045
-2.28960085018
-2.33694554057
-2.38588649194
-2.43650650929
-2.48889103657
-2.54312772631
-2.59930590377
-2.65751591516
-2.71783935096
-2.78008079871
-2.84390430145
-2.90922187123
-2.97606848214
-3.04447992723
-3.11449283777
-3.1861447027
-3.25947388882
-3.3345196613
-3.41132220457
-3.48992266279
-0.390125046019
-0.389521342384
-0.388970942277
-0.388454165613
-0.387995205505
-0.387575915041
-0.387210731687
-0.386892124404
-0.386625772546
-0.386410037883
-0.38624699681
-0.386136946991
-0.386080954184
-0.386079750342
-0.386134180559
-0.386245034053
-0.386413105228
-0.386639174239
-0.386924014008
-0.387268389263
-0.387673058148
-0.388138772966
-0.388666281276
-0.389256327146
-0.389909652336
-0.390626997512
-0.391409103584
-0.39225671311
-0.393170571607
-0.394151428951
-0.395200040917
-0.396317170681
-0.397503590392
-0.398760082616
-0.400087441867
-0.401486476237
-0.402958009007
-0.404502880161
-0.406121947937
-0.407816090411
-0.409586207174
-0.411433220928
-0.413358078859
-0.415361754256
-0.417445248204
-0.419609591023
-0.421855843731
-0.424185099618
-0.426598485734
-0.429097164394
-0.431682334652
-0.43435523368
-0.437117138269
-0.439969366342
-0.442913278273
-0.445950278251
-0.449081815746
-0.452309386925
-0.455634535973
-0.459058856478
-0.462583992832
-0.466211641587
-0.469943552831
-0.473781531549
-0.477727438943
-0.481783193815
-0.485950774003
-0.490232217735
-0.494629624965
-0.499145158752
-0.50378104675
-0.508539582647
-0.513423127567
-0.518434111494
-0.523575034737
-0.528848469474
-0.534257061273
-0.539803530627
-0.545490674503
-0.551321367942
-0.557298565702
-0.563425303929
-0.569704701836
-0.576139963385
-0.582734379059
-0.589491327673
-0.59641427823
-0.603506791803
-0.610772523423
-0.618215224031
-0.6258387425
-0.633647027684
-0.641644130562
-0.64983420635
-0.658221516712
-0.666810432009
-0.675605433635
-0.684611116382
-0.693832190876
-0.703273486049
-0.712939951681
-0.722836661008
-0.73296881343
-0.743341737228
-0.753960892036
-0.764828718682
-0.775942189087
-0.787300876028
-0.798909434459
-0.810772679999
-0.822895508766
-0.835282896391
-0.847939898001
-0.860871675568
-0.874083453578
-0.887580542514
-0.901368340594
-0.915452326589
-0.929838019635
-0.944531159223
-0.959537529634
-0.974862936307
-0.990513322373
-1.00649474529
-1.02281341116
-1.03947515565
-1.05648633404
-1.07385438534
-1.09158509262
-1.10968524333
-1.12816168535
-1.14702137862
-1.16627136087
-1.18591884072
-1.20597123478
-1.22643620985
-1.24732163823
-1.26863539407
-1.29038556764
-1.31258054053
-1.3352289395
-1.35833964923
-1.38192185543
-1.40598506935
-1.4305391556
-1.45559436492
-1.48116139077
-1.50725134034
-1.53387580735
-1.56104692386
-1.58877740284
-1.61708061163
-1.64597063711
-1.67546234946
-1.70557147125
-1.73631465475
-1.76770956538
-1.79977497287
-1.83253084839
-1.86599847021
-1.90020053674
-1.93516128349
-1.97090660032
-2.00746416559
-2.04486358607
-2.08313654124
-2.12231693189
-2.16244103273
-2.20354764754
-2.2456782649
-2.28887721427
-2.33319182352
-2.37867256716
-2.42537320579
-2.47335091391
-2.52266639184
-2.57338395668
-2.6255716069
-2.6793010543
-2.73464771641
-2.791690662
-2.850512501
-2.91119921026
-2.97383988515
-3.03852640731
-3.10535301754
-3.17441578366
-3.24581195212
-3.31963017533
-3.39568226771
-3.47363966839
-3.55342195876
-3.63507185951
-3.71863309168
-3.80415039996
-3.89166957678
-3.98123748672
-4.07290209163
-4.1667124762
-4.26271889787
-0.40711173362
-0.406711323986
-0.406370767974
-0.40606673533
-0.40582578141
-0.405628609602
-0.405490367034
-0.405403343155
-0.405373427923
-0.405399046191
-0.405482390854
-0.405623865045
-0.405824645019
-0.406085576604
-0.406407621128
-0.406791687553
-0.407238692906
-0.407749543336
-0.40832514103
-0.408966383353
-0.409674164536
-0.410449376487
-0.411292910039
-0.412205656182
-0.413188507373
-0.414242358928
-0.415368110377
-0.416566666908
-0.417838940826
-0.419185853077
-0.420608334838
-0.422107329117
-0.423683792387
-0.425338696284
-0.427073029143
-0.428887797695
-0.430784028825
-0.432762771219
-0.43482509705
-0.436972103664
-0.439204915316
-0.441524684903
-0.443932595582
-0.446429862405
-0.449017734124
-0.451697494826
-0.454470465532
-0.457338005882
-0.460301515831
-0.463362437222
-0.4665222554
-0.469782500824
-0.473144750683
-0.476610630551
-0.480181815924
-0.483860033708
-0.487647063841
-0.491544740909
-0.495554955662
-0.499679656559
-0.50392085136
-0.508280608702
-0.512761059621
-0.517364399132
-0.522092887788
-0.52694885327
-0.531934691974
-0.53705287062
-0.542305927826
-0.547696475749
-0.553227201762
-0.558900870126
-0.564720323665
-0.570688485429
-0.576808360462
-0.583083037586
-0.589515691172
-0.596109582949
-0.60286806386
-0.609794575957
-0.616892654356
-0.624165929188
-0.631618127568
-0.639253075627
-0.647074700619
-0.655087033091
-0.663294209052
-0.671700472186
-0.68031017611
-0.689127786727
-0.698157884598
-0.707405167424
-0.716874452517
-0.72657067936
-0.736498912205
-0.746664342785
-0.757072293071
-0.767728218093
-0.778637708805
-0.789806495039
-0.801240448509
-0.812945585934
-0.824928072261
-0.837194223869
-0.849750511533
-0.862600410957
-0.875741953058
-0.889175794262
-0.902907699331
-0.916943618929
-0.931289609684
-0.945951836234
-0.960936541775
-0.976250189639
-0.991899248549
-1.00789033312
-1.02423018363
-1.0409256827
-1.05798353853
-1.07541113665
-1.09321575808
-1.11140457786
-1.12998509708
-1.14896493184
-1.16835181748
-1.18815352827
-1.20837813548
-1.22903407375
-1.25012950987
-1.27167292154
-1.29367297312
-1.31613849948
-1.33907850342
-1.36250219175
-1.38641900217
-1.41083861999
-1.43577095915
-1.46122611687
-1.48721444039
-1.51374657297
-1.54083346139
-1.5684863741
-1.59671693106
-1.62553713213
-1.65495938728
-1.68499655045
-1.71566195758
-1.7469694475
-1.77893341073
-1.81156884053
-1.84489138545
-1.87891741328
-1.91366407669
-1.94914938137
-1.98539225849
-2.0224126441
-2.06023156466
-2.09887122968
-2.13835513103
-2.17870814965
-2.21995666914
-2.26212869477
-2.30525397806
-2.34936415042
-2.39449286411
-2.44067593837
-2.48795151029
-2.53636018977
-2.58594521713
-2.63675262198
-2.68883138227
-2.74223358187
-2.79701456193
-2.8532330634
-2.91095135776
-2.97023536166
-3.03115473067
-3.09378292669
-3.15819725285
-3.22447884891
-3.29271263977
-3.3629872286
-3.43539472568
-3.51003050345
-3.58699286751
-3.66638263295
-3.74830259575
-3.83285688808
-3.92014120912
-4.00997458484
-4.10203583463
-4.19625209314
-4.29267381124
-4.39135262099
-4.49234136342
-4.59569411669
-4.70146622513
-4.80971432882
-4.9204963938
-5.03387177138
-0.423982329932
-0.423785998324
-0.423656058782
-0.423565538341
-0.423543323837
-0.423569001333
-0.423658400064
-0.423803647672
-0.424010832995
-0.424278449344
-0.424608802372
-0.425002401426
-0.425460532078
-0.425984153628
-0.426574342875
-0.427232127866
-0.427958547664
-0.428754633681
-0.429621416628
-0.430559925804
-0.43157119086
-0.432656242672
-0.43381611462
-0.435051844002
-0.436364473363
-0.43775505194
-0.439224637185
-0.440774296278
-0.442405107694
-0.444118162771
-0.445914567442
-0.447795443923
-0.449761932453
-0.451815193076
-0.453956407326
-0.45618677994
-0.458507540804
-0.460919946748
-0.463425283253
-0.466024866301
-0.468720044235
-0.471512199592
-0.474402750866
-0.477393154271
-0.480484905636
-0.483679542229
-0.486978644481
-0.490383837802
-0.493896794405
-0.497519235052
-0.501252930789
-0.505099704726
-0.509061433832
-0.513140050713
-0.517337545314
-0.521655966594
-0.526097424293
-0.530664090737
-0.53535820256
-0.540182062394
-0.545138040642
-0.550228577265
-0.555456183508
-0.560823443661
-0.566333016834
-0.571987638752
-0.577790123547
-0.583743365573
-0.58985034125
-0.596114110933
-0.602537820778
-0.609124704668
-0.615878086129
-0.622801380312
-0.629898095972
-0.637171837491
-0.644626306932
-0.652265306133
-0.660092738865
-0.668112613023
-0.676329042844
-0.684746251151
-0.693368571654
-0.702200451329
-0.711246452861
-0.720511257103
-0.729999665587
-0.739716603095
-0.749667120305
-0.759856396494
-0.770289742307
-0.780972602588
-0.791910559258
-0.803109334268
-0.814574792654
-0.826312945663
-0.83832995392
-0.850632130695
-0.863225945234
-0.876118026162
-0.889315164997
-0.902824319743
-0.916652618642
-0.930807363809
-0.945296034786
-0.96012313963
-0.975287765615
-0.990791650441
-1.00664166532
-1.02284489335
-1.03940855563
-1.056340022
-1.07364660157
-1.09133624121
-1.10941653268
-1.12789541072
-1.14678094285
-1.16608133646
-1.1858048991
-1.20596022844
-1.22655602924
-1.24760109683
-1.26910442889
-1.29107519409
-1.3135227257
-1.33645651862
-1.3598863038
-1.38382204861
-1.40827380954
-1.43325186288
-1.45876670477
-1.48482905056
-1.51144984106
-1.53864026221
-1.56641176371
-1.59477607116
-1.62374518532
-1.65333137907
-1.68354722814
-1.71440564222
-1.74591988589
-1.77810360134
-1.81097083607
-1.84453607238
-1.87881425905
-1.91382084576
-1.94957181975
-1.98608374098
-2.0233737877
-2.06145980732
-2.10036037175
-2.14009483946
-2.18068342165
-2.2221472525
-2.26450846449
-2.30779026965
-2.35201704713
-2.39721443761
-2.44340944447
-2.49063054202
-2.53890779048
-2.58827295757
-2.63875964627
-2.69040343055
-2.74324199752
-2.79731529558
-2.85266568753
-2.90933810774
-2.96738022213
-3.02684258988
-3.08777882483
-3.15024575483
-3.21430357559
-3.28001599615
-3.34745037224
-3.41667782377
-3.48777333141
-3.56081580677
-3.63588813024
-3.71307714945
-3.79247363067
-3.87417215523
-3.95827095147
-4.0448716531
-4.13407897344
-4.22600028543
-4.32074509626
-4.41842440647
-4.51914094431
-4.62272092908
-4.72885054182
-4.83746445145
-4.94862081947
-5.06237916923
-5.1788004176
-5.29794690774
-5.41988244232
-5.54467231784
-5.67238335937
-5.80308398922
-0.440730912483
-0.440739356734
-0.440820714546
-0.440944383966
-0.441141548394
-0.441390710994
-0.441708354362
-0.442086462597
-0.442531311642
-0.443041468606
-0.443619348242
-0.444265566701
-0.444981517543
-0.445768273101
-0.446627024867
-0.447558919307
-0.44856511674
-0.449646773161
-0.450805047155
-0.452041099223
-0.45335609366
-0.454751199567
-0.45622759219
-0.457786454393
-0.459428978052
-0.461156365656
-0.462969831897
-0.464870605242
-0.46685992957
-0.468939065906
-0.471109294235
-0.47337191534
-0.475728252525
-0.478179653501
-0.480727492285
-0.483373171031
-0.486118121944
-0.488963809242
-0.491911731045
-0.4949634213
-0.498120451791
-0.501384433992
-0.504757021008
-0.508239909527
-0.511834841793
-0.515543607565
-0.519368045999
-0.523310047564
-0.527371556011
-0.531554570302
-0.535861146459
-0.540293399513
-0.544853505472
-0.54954370321
-0.554366296346
-0.559323655099
-0.56441821823
-0.569652495005
-0.575029067095
-0.580550590457
-0.586219797285
-0.592039497983
-0.598012583115
-0.604142025321
-0.610430881305
-0.616882293842
-0.623499493823
-0.630285802249
-0.637244632295
-0.644379491393
-0.651693983374
-0.659191810624
-0.666876776257
-0.674752786311
-0.682823852
-0.691094091982
-0.699567734723
-0.708249120853
-0.717142705612
-0.7262530613
-0.7355848798
-0.745142975134
-0.754932286094
-0.764957878948
-0.775224950173
-0.785738829238
-0.796504981474
-0.807529011011
-0.81881666378
-0.830373830584
-0.842206550224
-0.854321012703
-0.866723562516
-0.879420702029
-0.892419094947
-0.90572556982
-0.919347123675
-0.9332909257
-0.94756432105
-0.962174834727
-0.97713017554
-0.992438240233
-1.00810711767
-1.02414509299
-1.04056065172
-1.05735933138
-1.07454127264
-1.09210929115
-1.11007136085
-1.12843569337
-1.14721066131
-1.16640479451
-1.18602676165
-1.20608550249
-1.22659002433
-1.24754953644
-1.2689734272
-1.29087126178
-1.31325278287
-1.33612795424
-1.35950691941
-1.38339999484
-1.40781770149
-1.43277076602
-1.4582701228
-1.48432692133
-1.51095255105
-1.53815864094
-1.56595702615
-1.59435978286
-1.62337924153
-1.65302799523
-1.68331890984
-1.71426513903
-1.7458801396
-1.77817768408
-1.81117186932
-1.84487712672
-1.8793082444
-1.9144803926
-1.95040914769
-1.98711051754
-2.02460096956
-2.06289746133
-2.10201747344
-2.14197904512
-2.18280081237
-2.22450204852
-2.26710271073
-2.3106234915
-2.35508587554
-2.40051220192
-2.44692573122
-2.49435071744
-2.54281248536
-2.59233751376
-2.64295352492
-2.69468958078
-2.74757618598
-2.80164539774
-2.8569309428
-2.913468341
-2.9712950359
-3.03045053215
-3.09097653982
-3.15291712437
-3.21631886199
-3.28123099894
-3.34770561407
-3.41579778281
-3.48556574107
-3.55707104676
-3.63037873616
-3.70555747198
-3.78267967957
-3.86182166706
-3.94306372467
-4.02649019799
-4.11218952847
-4.20025425494
-4.29078096816
-4.38387021019
-4.47962630967
-4.57815714332
-4.67957381368
-4.78399023234
-4.89152259829
-5.00228876041
-5.11639845558
-5.23368507549
-5.35384214136
-5.47681183442
-5.60266000451
-5.73145404315
-5.86326291974
-5.99815721825
-6.13620917528
-6.27749271848
-6.42208350623
-6.57005900546
-0.457351690048
-0.457565519734
-0.457858762177
-0.458197206488
-0.458614293641
-0.459087480543
-0.459633873307
-0.460245330795
-0.460928304321
-0.46168144001
-0.46250725815
-0.463406482294
-0.464380612715
-0.46543083425
-0.466558452191
-0.467764730653
-0.469050950514
-0.470418391594
-0.471868339521
-0.473402085289
-0.475020927124
-0.47672617156
-0.478519134894
-0.480401144781
-0.48237354172
-0.484437680655
-0.486594932724
-0.488846686881
-0.491194351703
-0.493639357189
-0.496183156581
-0.498827228369
-0.501573078212
-0.504422240802
-0.507376281856
-0.510436800105
-0.51360542934
-0.516883840458
-0.520273743437
-0.52377688942
-0.527395072813
-0.531130133302
-0.534983957843
-0.538958482799
-0.543055696045
-0.547277639038
-0.551626408849
-0.556104160213
-0.560713107617
-0.565455527372
-0.570333759662
-0.575350210597
-0.580507354321
-0.585807735112
-0.591253969378
-0.596848747699
-0.602594836929
-0.608495082321
-0.614552409613
-0.620769827112
-0.627150427809
-0.633697391542
-0.640413987118
-0.647303574438