/*--------------------------------*- C++ -*----------------------------------*\
| =========                 |                                                 |
| \\      /  F ield         | OpenFOAM: The Open Source CFD Toolbox           |
|  \\    /   O peration     | Version:  2412                                  |
|   \\  /    A nd           | Website:  www.openfoam.com                      |
|    \\/     M anipulation  |                                                 |
\*---------------------------------------------------------------------------*/
FoamFile
{
    version     2.0;
    format      ascii;
    arch        "LSB;label=32;scalar=64";
    class       volScalarField;
    location    "2";
    object      p_rgh;
}
// * * * * * * * * * * * * * * * * * * * * * * * * * * * * * * * * * * * * * //

dimensions      [1 -1 -2 0 0 0 0];

internalField   nonuniform List<scalar> 
64000
(
-0.071461899531
-0.0697668807325
-0.0680903260174
-0.0664306337675
-0.0647998911242
-0.0631859649499
-0.061599387656
-0.0600336851584
-0.0584932770979
-0.056976228396
-0.0554839243347
-0.0540160880415
-0.0525731546799
-0.0511552194212
-0.049762472482
-0.0483950312747
-0.0470530012956
-0.0457364561342
-0.0444454442442
-0.0431799873272
-0.0419400817034
-0.0407256986158
-0.0395367848284
-0.0383732634283
-0.0372350344492
-0.0361219756959
-0.0350339436644
-0.0339707743537
-0.0329322841613
-0.0319182707624
-0.030928514032
-0.0299627770383
-0.0290208069949
-0.0281023362286
-0.0272070831183
-0.0263347530582
-0.0254850394943
-0.0246576248718
-0.0238521814846
-0.0230683723814
-0.0223058523491
-0.0215642688367
-0.0208432627374
-0.0201424692184
-0.0194615186442
-0.018800037354
-0.0181576482918
-0.0175339717271
-0.0169286260401
-0.0163412284036
-0.0157713953781
-0.0152187435057
-0.0146828898927
-0.01416345276
-0.0136600519348
-0.0131723092659
-0.0126998490751
-0.0122422986635
-0.0117992886945
-0.0113704534442
-0.0109554311095
-0.0105538641832
-0.0101653997464
-0.00978968967556
-0.00942639083783
-0.00907516529458
-0.00873568049348
-0.00840760942998
-0.0080906307675
-0.00778442894455
-0.00748869428423
-0.00720312307805
-0.00692741763541
-0.00666128632868
-0.00640444363971
-0.00615661018086
-0.00591751268681
-0.00568688400728
-0.0054644631129
-0.00524999508968
-0.00504323110176
-0.00484392833559
-0.0046518499495
-0.00446676502824
-0.00428844852397
-0.00411668117876
-0.00395124944591
-0.0037919454267
-0.00363856681042
-0.00349091679182
-0.00334880396232
-0.00321204220529
-0.00308045061881
-0.00295385344726
-0.00283207998623
-0.00271496446085
-0.00260234591671
-0.00249406814438
-0.00238997960271
-0.0022899333011
-0.0021937866677
-0.00210140145404
-0.00201264367122
-0.00192738355008
-0.00184549506989
-0.00176687151096
-0.00169143103699
-0.00161907592499
-0.0015496928963
-0.00148317096884
-0.00141940320471
-0.00135828596296
-0.00129971935476
-0.0012436063508
-0.00118985342309
-0.00113836998227
-0.00108906792348
-0.0010418636978
-0.000996674579186
-0.000953423110467
-0.000912033076817
-0.000872430434267
-0.000834544045434
-0.000798302860114
-0.000763640832833
-0.000730493679438
-0.00069880343551
-0.000668513656724
-0.000639567163007
-0.000611907684676
-0.000585477767585
-0.000560222157737
-0.000536085914732
-0.000513021214974
-0.00049098696546
-0.000469950230699
-0.000449876613768
-0.000430724428089
-0.000412448796575
-0.000395004158815
-0.000378344239568
-0.000362423460142
-0.000347201921291
-0.000332647805073
-0.000318735348447
-0.000305447679119
-0.000292774665667
-0.000280695766864
-0.000269184398449
-0.00025820986112
-0.000247736357826
-0.00023772517925
-0.000228139706909
-0.000218954070129
-0.000210145425839
-0.000201694102776
-0.000193580595876
-0.0001857874365
-0.000178296333592
-0.000171090908802
-0.000164162993758
-0.000157522804014
-0.000151138206824
-0.000144999793985
-0.000139090204486
-0.000133393531603
-0.000127895269996
-0.000122582193157
-0.0001174422991
-0.000112461267152
-0.000107619578613
-0.000102904741761
-9.83071955845e-05
-9.38184597997e-05
-8.94307208661e-05
-8.51366416246e-05
-8.09294300517e-05
-7.68028915749e-05
-7.27514281516e-05
-6.8770048057e-05
-6.4854402122e-05
-6.10007857695e-05
-5.7206143674e-05
-5.34680410895e-05
-4.97846856377e-05
-4.61548831e-05
-4.25780029361e-05
-3.90539721048e-05
-3.55836767018e-05
-3.21820847757e-05
-2.88607965775e-05
-2.56159823127e-05
-2.24391353456e-05
-1.93218294294e-05
-1.62558252774e-05
-1.3232909098e-05
-1.02449348896e-05
-7.28383649965e-06
-4.34163384655e-06
-1.41030592201e-06
-0.0692172402963
-0.0675414346093
-0.0658864387105
-0.0642469716516
-0.0626374190851
-0.0610443351224
-0.0594789221506
-0.0579343686642
-0.0564152356141
-0.0549195175871
-0.0534486160703
-0.0520022385968
-0.0505808154492
-0.049184434014
-0.0478132775254
-0.0464674564343
-0.0451470694137
-0.0438521832309
-0.042582839645
-0.0413390538122
-0.0401208155367
-0.0389280896625
-0.0377608166416
-0.0366189133018
-0.035502273555
-0.0344107691978
-0.0333442507948
-0.0323025484952
-0.0312854729345
-0.0302928161144
-0.0293243523253
-0.0283798391709
-0.0274590184935
-0.0265616173312
-0.0256873488973
-0.0248359135069
-0.0240069996333
-0.0232002848642
-0.0224154367047
-0.0216521135498
-0.0209099656799
-0.0201886361086
-0.0194877614233
-0.0188069726362
-0.0181458960415
-0.0175041540174
-0.0168813656913
-0.0162771476504
-0.0156911147478
-0.0151228807525
-0.0145720589055
-0.0140382625721
-0.0135211058588
-0.0130202041092
-0.0125351743735
-0.0120656358748
-0.011611210474
-0.0111715231413
-0.0107462023204
-0.0103348801922
-0.00993719301268
-0.00955278149737
-0.00918129108196
-0.00882237209915
-0.00847567999548
-0.00814087556321
-0.00781762511891
-0.00750560064318
-0.00720447990777
-0.00691394658656
-0.00663369035211
-0.00636340696094
-0.00610279831702
-0.00585157251027
-0.00560944383971
-0.00537613282839
-0.00515136623043
-0.00493487703134
-0.0047264044423
-0.0045256938789
-0.00433249692233
-0.00414657127388
-0.00396768070773
-0.00379559501162
-0.0036300899112
-0.00347094699321
-0.00331795364179
-0.00317090297951
-0.00302959378934
-0.00289383041003
-0.00276342262931
-0.00263818560095
-0.00251793977452
-0.00240251080354
-0.00229172942451
-0.00218543134067
-0.00208345713969
-0.00198565222239
-0.00189186669561
-0.00180195523398
-0.00171577696394
-0.00163319538903
-0.00155407832829
-0.00147829783424
-0.00140572971593
-0.00133626927046
-0.00126983683936
-0.00120633675185
-0.0011456575284
-0.0010876901033
-0.00103232946113
-0.000979473874264
-0.000929025480531
-0.000880889077029
-0.000834973368595
-0.000791189466975
-0.000749451904651
-0.000709677401086
-0.000671786791088
-0.000635703570646
-0.000601356061164
-0.000568670890761
-0.00053757934726
-0.000508010368619
-0.00047989859119
-0.000453180882847
-0.000427803405518
-0.000403718558875
-0.000380869280006
-0.000359200611383
-0.000338655174489
-0.000319177167998
-0.000300707333643
-0.000283197023888
-0.00026661029133
-0.000250927431463
-0.000236125542042
-0.000222161932263
-0.000208988314014
-0.000196559474899
-0.000184827061889
-0.000173737155553
-0.00016324858351
-0.000153331237485
-0.000143963292016
-0.000135131893121
-0.00012685502454
-0.000119112440201
-0.000111876964083
-0.000105119297569
-9.87992906857e-05
-9.28707617576e-05
-8.72865581634e-05
-8.20299216781e-05
-7.7079332707e-05
-7.24215262971e-05
-6.80368371999e-05
-6.39121496695e-05
-6.00278536097e-05
-5.63631344707e-05
-5.29150009373e-05
-4.97168593665e-05
-4.67384113968e-05
-4.39584622453e-05
-4.13600898189e-05
-3.89288069352e-05
-3.6651286809e-05
-3.45165852261e-05
-3.25173627568e-05
-3.06430883749e-05
-2.88617248907e-05
-2.7165193084e-05
-2.5547542446e-05
-2.40027313108e-05
-2.25247572848e-05
-2.11078954e-05
-1.97468450023e-05
-1.84368273847e-05
-1.71736307424e-05
-1.59536383814e-05
-1.47738516314e-05
-1.36319084473e-05
-1.25260814709e-05
-1.14552660078e-05
-1.04189772582e-05
-9.41733027848e-06
-8.4510042907e-06
-7.52122155809e-06
-6.63018405132e-06
-5.79411651023e-06
-5.02596023918e-06
-4.32317534751e-06
-3.67850351819e-06
-3.08480484489e-06
-2.53507091355e-06
-2.02235996452e-06
-1.53980345433e-06
-1.08059774999e-06
-6.37987729505e-07
-2.10010817354e-07
-0.0668994256415
-0.0652441278346
-0.0636119964181
-0.061994038129
-0.0604069696238
-0.0588360022671
-0.0572930304402
-0.055770893669
-0.0542742965971
-0.0528011628555
-0.0513529094652
-0.0499292280356
-0.0485305434457
-0.0471569347766
-0.045808577853
-0.0444855756407
-0.043188019531
-0.0419159691099
-0.0406694590275
-0.0394484974947
-0.0382530674254
-0.0370831268283
-0.035938609475
-0.0348194256389
-0.0337254627873
-0.0326565863925
-0.0316126408157
-0.0305934500879
-0.0295988188202
-0.0286285331319
-0.0276823615309
-0.0267600559368
-0.0258613526308
-0.0249859732139
-0.0241336256242
-0.0233040049997
-0.0224967946889
-0.0217116673319
-0.0209482856475
-0.0202063033199
-0.0194853660542
-0.0187851124414
-0.0181051747768
-0.0174451799235
-0.0168047501306
-0.01618350386
-0.0155810565117
-0.0149970210809
-0.0144310089339
-0.013882630522
-0.0133514959295
-0.012837215485
-0.0123394003897
-0.0118576632245
-0.0113916184371
-0.010940882823
-0.0105050759497
-0.0100838205995
-0.00967674317785
-0.00928347400059
-0.00890364759566
-0.0085369030771
-0.0081828844261
-0.00784124065802
-0.00751162602963
-0.00719370028567
-0.00688712883889
-0.00659158288905
-0.00630673954534
-0.00603228194567
-0.00576789935232
-0.00551328723278
-0.00526814732403
-0.00503218766499
-0.0048051226079
-0.00458667283159
-0.00437656535691
-0.00417453354696
-0.00398031708776
-0.00379366195945
-0.00361432040292
-0.00344205087792
-0.00327661800508
-0.00311779249282
-0.00296535106228
-0.00281907638155
-0.00267875700416
-0.00254418729424
-0.00241516732982
-0.00229150279924
-0.00217300491196
-0.00205949032023
-0.00195078102832
-0.00184670427841
-0.00174709243405
-0.0016517828864
-0.00156061797628
-0.00147344489731
-0.00139011556668
-0.00131048649724
-0.00123441870513
-0.00116177763642
-0.00109243308552
-0.00102625907167
-0.000963133374984
-0.000902953451434
-0.000845641974678
-0.000791105510151
-0.000739234367705
-0.000689921677674
-0.000643064088272
-0.000598562371284
-0.000556320190477
-0.000516245572118
-0.00047824902296
-0.00044224326797
-0.000408145221816
-0.000375872142864
-0.000345347456576
-0.000316499029916
-0.000289257510731
-0.000263551652621
-0.000239313954393
-0.000216476015422
-0.000194968672173
-0.000174725854835
-0.000155702994913
-0.00013786915064
-0.000121165222252
-0.000105533534465
-9.09196702489e-05
-7.72670283814e-05
-6.45061986388e-05
-5.25792878954e-05
-4.14574893113e-05
-3.11444532427e-05
-2.16465311943e-05
-1.29106886939e-05
-4.87572553192e-06
2.49985833728e-06
9.26441598712e-06
1.54951372089e-05
2.12305785155e-05
2.64981055788e-05
3.13144129907e-05
3.57044516035e-05
3.95679706337e-05
4.29515393072e-05
4.58876718919e-05
4.83967016948e-05
5.05272609725e-05
5.23360809979e-05
5.39051320128e-05
5.52156533108e-05
5.62976761492e-05
5.71473307097e-05
5.7793861921e-05
5.82356874442e-05
5.84981043367e-05
5.8621333018e-05
5.86180714023e-05
5.8353653533e-05
5.79119717184e-05
5.73223727446e-05
5.6599928014e-05
5.5756838113e-05
5.48060161528e-05
5.3757334541e-05
5.26081348991e-05
5.13507671699e-05
5.00647777835e-05
4.87373710621e-05
4.73691545286e-05
4.59638108432e-05
4.45256610222e-05
4.30589329645e-05
4.15674949065e-05
4.00547224208e-05
3.85234529643e-05
3.69759329067e-05
3.54138021892e-05
3.38380779237e-05
3.22491544928e-05
3.06468032734e-05
2.90301840706e-05
2.73978652487e-05
2.57478504742e-05
2.40776148155e-05
2.23836480283e-05
2.06484689385e-05
1.88578850113e-05
1.70131606371e-05
1.51202771741e-05
1.31850916481e-05
1.12133502741e-05
9.21071332717e-06
7.18276608332e-06
5.1350317471e-06
3.07301191977e-06
9.92706719638e-07
-0.0645094967248
-0.0628759876168
-0.0612680148448
-0.0596728529437
-0.0581095448364
-0.0565619704931
-0.0550427023483
-0.0535442433809
-0.0520714322751
-0.0506221269387
-0.0491977564889
-0.0477979975872
-0.0464232687628
-0.0450736406084
-0.0437492809961
-0.0424502850242
-0.0411767363183
-0.0399286868961
-0.0387061638913
-0.0375091681306
-0.0363376753094
-0.0351916363053
-0.0340709778518
-0.0329756033312
-0.0319053934572
-0.030860207049
-0.0298398819591
-0.0288442358749
-0.0278730671659
-0.0269261558306
-0.0260032643833
-0.0251041388817
-0.0242285099166
-0.0233760934826
-0.0225465920287
-0.0217396954314
-0.0209550818907
-0.020192418975
-0.0194513645172
-0.0187315674856
-0.0180326690148
-0.0173543032546
-0.0166960981693
-0.0160576764775
-0.0154386564735
-0.0148386527726
-0.0142572770644
-0.0136941388068
-0.0131488459886
-0.012621005859
-0.0121102254488
-0.0116161121436
-0.0111382743792
-0.0106763221628
-0.010229867495
-0.00979852486359
-0.00938191170883
-0.00897964883105
-0.00859136079179
-0.0082166762284
-0.00785522813419
-0.00750665421828
-0.00717059721581
-0.00684670504998
-0.00653463100746
-0.00623403400065
-0.00594457876797
-0.00566593596604
-0.005397782268
-0.00513980050324
-0.00489167976779
-0.00465311548684
-0.00442380946194
-0.00420346990797
-0.00399181147153
-0.00378855523825
-0.00359342873769
-0.0034061659412
-0.00322650724593
-0.0030541994442
-0.00288899568129
-0.00273065540367
-0.00257894429801
-0.0024336342222
-0.00229450313268
-0.00216133501345
-0.00203391980283
-0.00191205331056
-0.00179553712414
-0.00168417851237
-0.00157779033237
-0.00147619093482
-0.00137920406129
-0.00128665873711
-0.00119838916794
-0.00111423464366
-0.0010340394412
-0.00095765271237
-0.000884928360334
-0.000815724930028
-0.000749905521864
-0.000687337696396
-0.000627893371238
-0.000571448687132
-0.000517883570514
-0.000467097784585
-0.000419016392602
-0.000373548345071
-0.000330585942192
-0.000290024499535
-0.00025176288996
-0.000215703198888
-0.000181752080192
-0.000149820874496
-0.000119822314893
-9.16709575852e-05
-6.52843117622e-05
-4.05816927006e-05
-1.74861947114e-05
4.06615984949e-06
2.41415375118e-05
4.2807911321e-05
6.01334383415e-05
7.61826352746e-05
9.10279078536e-05
0.000104755888384
0.000117398463116
0.000128934349008
0.000139445559925
0.000148995459175
0.000157631556772
0.000165403362209
0.00017241336501
0.000178739420302
0.000184403506085
0.000189349873165
0.000193496827092
0.000196954608139
0.000199819225129
0.000202103481662
0.00020383678094
0.000205174088794
0.00020613255388
0.000206733341996
0.000206978124501
0.000207009867967
0.000206429450118
0.000205434183292
0.000204060133205
0.000202285920622
0.000200247670611
0.000197996599132
0.000195549299401
0.000192911973204
0.00019010014187
0.000187122873122
0.000183995793095
0.00018072847867
0.000177337319323
0.000173839918016
0.000170236574157
0.000166492292977
0.000162629556481
0.000158668130941
0.000154622190731
0.000150503223694
0.000146321479045
0.000142084975466
0.000137798026334
0.000133467933523
0.000129123871824
0.000124771274261
0.000120413271224
0.000116053052461
0.000111693785896
0.000107338390762
0.000102989380502
9.86487644118e-05
9.4318011739e-05
8.99980075301e-05
8.56890343188e-05
8.13907585205e-05
7.71022299244e-05
7.28218840385e-05
6.85475518661e-05
6.42764766799e-05
6.00053444265e-05
5.57303158479e-05
5.14465778077e-05
4.71354315696e-05
4.278149298e-05
3.83847620241e-05
3.39499278187e-05
2.94815576572e-05
2.49841118853e-05
2.04619602473e-05
1.59193967123e-05
1.13606542474e-05
6.78995930577e-06
2.19736683624e-06
-0.0620486085994
-0.0604381591865
-0.0588556263929
-0.0572845406551
-0.0557462552921
-0.054223341258
-0.0527290273459
-0.0512554956871
-0.0498077085423
-0.0483834635366
-0.0469841985414
-0.0456095761754
-0.0442600075692
-0.0429355547293
-0.041636377087
-0.040362561568
-0.0391141836215
-0.0378912872546
-0.036693891718
-0.035521990073
-0.0343755503856
-0.0332545160686
-0.032158806529
-0.0310883179413
-0.0300429239693
-0.0290224765237
-0.0280268066738
-0.0270557254825
-0.0261090248119
-0.0251864783134
-0.0242878423529
-0.0234128569421
-0.0225612467807
-0.0217327221646
-0.020926979948
-0.0201437045721
-0.0193825689902
-0.0186432356568
-0.0179253574633
-0.0172285786049
-0.0165525355917
-0.0158968581377
-0.0152611699291
-0.014645089557
-0.0140482313618
-0.0134702061427
-0.0129106219551
-0.012369084838
-0.0118451994862
-0.011338569989
-0.0108488004334
-0.0103754954344
-0.00991826079477
-0.0094767040736
-0.00905043498387
-0.00863906587042
-0.00824221221632
-0.00785949302904
-0.00749053119985
-0.00713495386276
-0.00679239269156
-0.00646248420735
-0.00614487009343
-0.00583919739415
-0.00554511866306
-0.0052622921964
-0.00499038226472
-0.00472905921699
-0.0044779995403
-0.0042368859831
-0.00400540769358
-0.00378326029295
-0.00357014589857
-0.00336577314361
-0.00316985719898
-0.00298211978783
-0.00280228918942
-0.00263010023266
-0.00246529427143
-0.00230761914221
-0.00215682911683
-0.00201268485661
-0.00187495335576
-0.00174340786312
-0.00161782779583
-0.00149799866352
-0.00138371200119
-0.00127476529027
-0.00117096185906
-0.00107211077456
-0.000978026738215
-0.000888529989647
-0.000803446212825
-0.000722606433352
-0.000645846904936
-0.000573008998138
-0.00050393909753
-0.000438488494735
-0.000376513274088
-0.000317874206728
-0.000262436649723
-0.000210070426402
-0.000160649730587
-0.000114053003386
-7.01625065385e-05
-2.88804382917e-05
9.86567009114e-06
4.61644219814e-05
8.01211981022e-05
0.000111838489512
0.000141414913617
0.000168947703948
0.000194527058339
0.000218237120708
0.000240162489562
0.000260386743502
0.000278990396246
0.000296054911443
0.000311664556106
0.000325866848005
0.000338716454677
0.000350286284248
0.000360642085314
0.00036984307552
0.000377958704457
0.00038515259001
0.000391434440807
0.000396599219702
0.000400864784111
0.000404292701737
0.000406912604946
0.000408717320149
0.000409909605546
0.000410609685375
0.000410862560961
0.000410515081754
0.000409229496931
0.000407336144569
0.000405022046238
0.000402260643084
0.000399078499675
0.0003955434768
0.000391689478858
0.000387539146092
0.000383107180636
0.000378414467843
0.000373357501551
0.000367977694469
0.000362304979723
0.000356360582055
0.000350206617705
0.000343885230213
0.000337419896111
0.000330825230968
0.000324115076885
0.000317300978346
0.000310395118231
0.000303408071893
0.00029635140019
0.000289234778291
0.000282059658002
0.000274818557446
0.000267520239853
0.000260176776769
0.00025279913395
0.000245396870503
0.000237978393619
0.000230550821497
0.000223120280792
0.000215694916244
0.000208288403184
0.000200907601577
0.000193556393401
0.000186237551549
0.000178953268942
0.000171705253934
0.000164494713132
0.000157322318086
0.000150188178642
0.000143091819123
0.000136032162751
0.000129007522716
0.000122015600375
0.000115053488953
0.000108117683614
0.000101204099347
9.43080985684e-05
8.74245252142e-05
8.05472600558e-05
7.36564334098e-05
6.67355278743e-05
5.97832889156e-05
5.28031016684e-05
4.57982316859e-05
3.87718386556e-05
3.17269912515e-05
2.46666821622e-05
1.75938423063e-05
1.05114109249e-05
3.40349340786e-06
-0.0595180330012
-0.0579319034906
-0.0563760772366
-0.0548303356855
-0.053318320869
-0.0518213218894
-0.0503531990261
-0.0489058305497
-0.047484291281
-0.0460863243081
-0.0447133728648
-0.0433650866249
-0.042041868189
-0.040743770832
-0.0394709450654
-0.0382234692853
-0.0370014104119
-0.0358048041017
-0.0346336613348
-0.0334879670703
-0.0323676814232
-0.0312727399804
-0.0302030544762
-0.0291585135716
-0.0281389836043
-0.0271443093199
-0.02617431473
-0.0252288040355
-0.0243075624221
-0.0234103569537
-0.0225369375851
-0.0216870381279
-0.0208603772537
-0.0200566594122
-0.019275575737
-0.0185168051224
-0.0177800152121
-0.0170648632962
-0.0163709972333
-0.0156980563788
-0.0150456726119
-0.0144134712334
-0.0138010716611
-0.0132080883299
-0.0126341316569
-0.0120788087375
-0.011541724047
-0.0110224802288
-0.0105206787935
-0.0100359208015
-0.00956780749593
-0.00911594083637
-0.00867992411826
-0.00825936258572
-0.00785386384557
-0.0074630382783
-0.00708649955473
-0.00672386505876
-0.00637475621179
-0.00603879882603
-0.00571562344282
-0.00540486561948
-0.00510616620214
-0.00481917154908
-0.00454353369985
-0.00427891057772
-0.00402496620756
-0.00378137084047
-0.00354780100736
-0.00332393961841
-0.00310947610717
-0.00290410652176
-0.0027075335338
-0.00251946643009
-0.00233962113665
-0.00216772025412
-0.00200349306441
-0.0018466754993
-0.00169701009316
-0.001554245944
-0.00141813868533
-0.0012884504435
-0.00116494975811
-0.00104741148254
-0.000935616702357
-0.000829352677916
-0.000728412778458
-0.000632596384829
-0.000541708773729
-0.000455561005356
-0.000373969825035
-0.000296757575656
-0.000223752101473
-0.000154786628551
-8.96996381318e-05
-2.83347595533e-05
2.94593255178e-05
8.38289894877e-05
0.000134915775137
0.000182856511329
0.00022778343293
0.000269824300578
0.000309102470708
0.00034573703022
0.00037984324649
0.000411516349766
0.000440826053368
0.000467858656502
0.000492717053984
0.000515500719197
0.000536306202276
0.000555228796226
0.000572363338656
0.00058777763994
0.000601557716353
0.000613785251444
0.000624536933327
0.000633892808993
0.000641977796064
0.000648783185904
0.000654343873376
0.000658763899181
0.000662102062227
0.000664397724933
0.00066563930647
0.00066628646985
0.000666383713761
0.000665000313866
0.000662974641234
0.000660259080992
0.000656869943786
0.000652842579591
0.000648273247018
0.000643234596732
0.000637748257925
0.000631753497919
0.000625164117998
0.00061808579891
0.000610617168878
0.000602791661041
0.000594642797894
0.000586212655099
0.000577532388454
0.000568623882658
0.000559501024636
0.000550168896396
0.000540602632508
0.000530815436727
0.000520828513906
0.000510666364986
0.000500365617009
0.000489957745585
0.000479465307416
0.000468904664641
0.00045828938254
0.000447631018183
0.000436940241265
0.00042622657884
0.000415498824284
0.000404763793157
0.000394024436434
0.000383281132069
0.00037253920991
0.000361806428963
0.000351090745831
0.000340399542975
0.000329739481794
0.000319116503834
0.000308536213892
0.000298005011313
0.000287530528773
0.000277117973318
0.000266770525412
0.000256490126585
0.00024627790912
0.000236134367985
0.000226059414383
0.00021605238464
0.000206112033286
0.000196236522603
0.000186423413698
0.000176669661275
0.000166971613223
0.000157325015171
0.000147725021301
0.000138166212744
0.000128642624206
0.000119147778909
0.000109674249701
0.000100201044063
9.07105697005e-05
8.12003269023e-05
7.16723852994e-05
6.21286968029e-05
5.25711086663e-05
4.30013776971e-05
3.34211843815e-05
2.38321464363e-05
1.42359054491e-05
4.61061092626e-06
-0.0569191556887
-0.0553585930206
-0.0538307228126
-0.0523115789186
-0.050827065923
-0.0493572211989
-0.0479165102836
-0.0464965250522
-0.0451024415817
-0.0437319541163
-0.0423865078452
-0.0410657406895
-0.0397700457763
-0.0384994674668
-0.0372541468758
-0.036034153525
-0.0348395453734
-0.0336703493686
-0.0325265679285
-0.0314081775817
-0.0303151301519
-0.029247353098
-0.0282047502055
-0.0271872023211
-0.026194568105
-0.0252266848732
-0.0242833693923
-0.0233644187284
-0.0224696111313
-0.0215987069347
-0.0207514495416
-0.0199275663652
-0.0191267698391
-0.0183487584233
-0.0175932174792
-0.0168598202568
-0.0161482289392
-0.0154580955651
-0.0147890629579
-0.0141407656573
-0.0135128308604
-0.012904879364
-0.0123165263486
-0.0117473821898
-0.0111970533886
-0.0106651433415
-0.0101512530205
-0.00965498176255
-0.0091759279961
-0.00871368986659
-0.00826786586158
-0.00783805540087
-0.0074238594316
-0.00702488102114
-0.00664072580392
-0.00627100236897
-0.00591532274583
-0.00557330285782
-0.00524456284865
-0.00492872741244
-0.00462542614876
-0.00433429384887
-0.00405497073159
-0.00378710267437
-0.00353034142012
-0.00328434475835
-0.00304877669489
-0.00282330758231
-0.00260761421098
-0.00240137990752
-0.00220429464673
-0.00201605512393
-0.00183636477004
-0.00166493375739
-0.00150147902789
-0.00134572431714
-0.00119740013864
-0.0010562437376
-0.0009219990512
-0.000794416688006
-0.000673253897562
-0.00055827449876
-0.000449248778542
-0.00034595340453
-0.000248171367973
-0.00015569192395
-6.83104980431e-05
1.41714294417e-05
9.19464365902e-05
0.000165201261996
0.000234116896519
0.000298868677238
0.000359626403748
0.000416554471556
0.000469811988268
0.000519552868636
0.000565925936423
0.000609075041259
0.000649139179778
0.000686252622582
0.000720545039145
0.000752141599862
0.000781163032539
0.000807725797905
0.000831942550326
0.000853905794399
0.000873682556699
0.000891356526265
0.000907027140686
0.000920791081721
0.000932743136234
0.000942975490364
0.000951608551123
0.000958650837381
0.000964215264437
0.000968380286665
0.000971211890195
0.000972748790573
0.000973321266518
0.00097270164065
0.000970888549103
0.000968111106619
0.000964399798015
0.00095980084433
0.00095437551956
0.000948284538149
0.000941534429938
0.00093391612389
0.000925641795954
0.00091677222074
0.000907348001678
0.000897413414426
0.000887027605153
0.000876238133711
0.000865064828058
0.000853495001304
0.000841515771057
0.000829174221449
0.00081652710367
0.00080361321765
0.000790466099641
0.000777118451698
0.000763597132487
0.000749922314063
0.000736107542506
0.000722159390165
0.000708076194246
0.000693867508511
0.000679549671246
0.00066514327089
0.000650673501778
0.000636164069586
0.00062163434692
0.000607099691518
0.00059257274646
0.000578064201988
0.000563583407789
0.000549138501252
0.000534736467205
0.000520382691176
0.00050608055996
0.000491832457502
0.000477642319123
0.000463515324474
0.000449456989325
0.000435472617707
0.000421567093757
0.000407744864501
0.000394010139439
0.000380367257797
0.000366820594035
0.000353373333182
0.000340027319351
0.000326783315285
0.000313641243437
0.000300600327825
0.000287659161935
0.000274815735566
0.000262067441588
0.0002494110747
0.000236842828297
0.000224358292851
0.000211952457128
0.000199619713682
0.000187353870583
0.000175148170252
0.00016299531575
0.000150887505948
0.000138816004321
0.0001267587447
0.000114697118574
0.000102627390122
9.05503023632e-05
7.84664826211e-05
6.6376454938e-05
5.42806534707e-05
4.21794358203e-05
3.00730961555e-05
1.79619683278e-05
5.81824124473e-06
-0.0542534753371
-0.0527197108015
-0.0512210267421
-0.0497297171379
-0.0482739186089
-0.0468324494362
-0.0454203530938
-0.0440289530806
-0.042663515248
-0.0413216906661
-0.0400049230227
-0.0387128395241
-0.0374458229471
-0.0362039086605
-0.0349872278974
-0.0337958410163
-0.0326297967194
-0.0314891128826
-0.0303737829517
-0.0292837746721
-0.0282190312964
-0.0271794718602
-0.0261649918779
-0.0251754641462
-0.0242107394354
-0.0232706473192
-0.0223549970268
-0.0214635782928
-0.0205961622371
-0.0197525022465
-0.0189323349656
-0.0181353812777
-0.0173613472722
-0.0166099252773
-0.0158807947403
-0.0151736231545
-0.0144880671697
-0.013823773547
-0.0131803800077
-0.0125575161943
-0.011954804637
-0.0113718616502
-0.0108082981552
-0.0102637204846
-0.00973773126878
-0.00922993025724
-0.00873991500792
-0.0082672816277
-0.00781162552332
-0.00737254202915
-0.00694962700364
-0.00654247744688
-0.00615069209944
-0.00577387200154
-0.00541162095201
-0.00506354589916
-0.00472925739913
-0.0044083700882
-0.00410050302931
-0.0038052800034
-0.00352232984763
-0.00325128677037
-0.00299179058502
-0.002743486918
-0.00250602742101
-0.002279069952
-0.00206227871837
-0.00185532440604
-0.00165788429791
-0.00146964236917
-0.00129028935991
-0.00111952283047
-0.000957047203747
-0.000802573791275
-0.000655820801739
-0.000516513328646
-0.000384383324403
-0.000259169573695
-0.000140617670337
-2.84799841575e-05
7.74844005077e-05
0.000177509773175
0.000271823883559
0.000360648004951
0.000444196995915
0.000522679391094
0.00059629751419
0.000665247585884
0.000729719823561
0.000789898541211
0.000845962251288
0.00089808377823
0.000946430388198
0.000991163910562
0.00103244083805
0.00107041242973
0.00110522483185
0.00113701920084
0.00116593182427
0.00119209425035
0.00121563340937
0.00123667170378
0.00125532707229
0.00127171321529
0.00128594002487
0.00129809719597
0.00130824905289
0.00131647633483
0.00132287558892
0.00132754046153
0.00133055710696
0.00133199542808
0.00133212050225
0.00133069624068
0.00132798046935
0.00132402914241
0.00131890900696
0.00131269311878
0.00130550331241
0.0012973232399
0.0012881846127
0.00127818715038
0.00126739057316
0.00125585006145
0.0012436270635
0.00123079715294
0.00121738097139
0.00120334972008
0.00118877894479
0.00117372495871
0.00115823272016
0.00114234514407
0.00112610645888
0.00110955323374
0.0010927075172
0.00107557768924
0.00105817366676
0.00104052587045
0.00102267216748
0.00100464615782
0.000986477840552
0.000968194569316
0.000949819527363
0.000931371040829
0.000912862527373
0.000894302903686
0.000875698150001
0.000857057883078
0.000838395612489
0.000819727838105
0.000801073202124
0.000782449836766
0.000763873612835
0.000745357823321
0.00072691355698
0.000708550135992
0.000690275482841
0.000672096281417
0.000654018038303
0.000636044994009
0.000618180164836
0.000600425953646
0.000582785158249
0.000565261083889
0.00054785722067
0.000530576943148
0.000513423349553
0.000496399218794
0.000479507073482
0.000462749263413
0.000446127823254
0.000429643996241
0.000413298063998
0.000397089403403
0.000381016599058
0.000365077534692
0.000349269448798
0.000333588963437
0.000318032096483
0.000302594265356
0.000287270288034
0.000272054383944
0.000256940176357
0.000241920699053
0.000226988409086
0.000212135205778
0.000197352456707
0.000182631033104
0.000167960888292
0.000153318932046
0.000138685598377
0.000124055924685
0.000109429316981
9.48050677111e-05
8.01823673271e-05
6.55603170039e-05
5.09379414207e-05
3.63142013757e-05
2.16881131412e-05
7.02590267327e-06
-0.0515226010841
-0.0500168481202
-0.0485485587692
-0.047086301148
-0.045660409271
-0.0442485170576
-0.0428662174906
-0.041504584235
-0.0401689614862
-0.0388569627909
-0.037570027019
-0.0363077715814
-0.0350705679288
-0.0338584423505
-0.0326715158021
-0.0315098391574
-0.0303734514907
-0.0292623612994
-0.0281765528101
-0.0271159846768
-0.0260805911986
-0.0250702826936
-0.0240849461569
-0.023124446033
-0.0221886249229
-0.0212773044437
-0.0203902860964
-0.0195273520598
-0.0186882660798
-0.0178727743855
-0.017080606707
-0.0163114772798
-0.0155650857186
-0.0148411180234
-0.0141392476115
-0.0134591362125
-0.0128004348659
-0.0121627849293
-0.0115458189728
-0.0109491617394
-0.0103724310912