/*--------------------------------*- C++ -*----------------------------------*\
| =========                 |                                                 |
| \\      /  F ield         | OpenFOAM: The Open Source CFD Toolbox           |
|  \\    /   O peration     | Version:  2412                                  |
|   \\  /    A nd           | Website:  www.openfoam.com                      |
|    \\/     M anipulation  |                                                 |
\*---------------------------------------------------------------------------*/
FoamFile
{
    version     2.0;
    format      ascii;
    arch        "LSB;label=32;scalar=64";
    class       surfaceScalarField;
    location    "2";
    object      phi;
}
// * * * * * * * * * * * * * * * * * * * * * * * * * * * * * * * * * * * * * //

dimensions      [0 3 -1 0 0 0 0];

oriented        oriented;

internalField   nonuniform List<scalar> 
127680
(
-4.88669445585e-07
-0.00393788013874
0.00393865171419
-8.34475532975e-07
-0.00400682743627
0.00400717324235
-1.25619709444e-06
-0.00406422780154
0.00406464952311
-1.69659891827e-06
-0.00412379553312
0.00412423593496
-2.18700719084e-06
-0.00418297692266
0.00418346733096
-2.71589001102e-06
-0.00424327089951
0.00424379978236
-3.28606394063e-06
-0.00430397534691
0.00430454552084
-3.89426420198e-06
-0.00436551709281
0.00436612529306
-4.53953267934e-06
-0.00442774835928
0.00442839362774
-5.22048805838e-06
-0.00449076063918
0.00449144159452
-5.93583619817e-06
-0.00455454668101
0.00455526202911
-6.68437932807e-06
-0.00461914017447
0.00461988871757
-7.46493361222e-06
-0.00468456138324
0.0046853419375
-8.27637562485e-06
-0.00475083718876
0.00475164863075
-9.11763832382e-06
-0.00481799414481
0.0048188354075
-9.98770571954e-06
-0.00488606080728
0.00488693087467
-1.088561122e-05
-0.00495506706482
0.00495596497033
-1.18104341886e-05
-0.00502504435061
0.00502596917359
-1.27613129179e-05
-0.00509602562028
0.00509697649902
-1.37374398625e-05
-0.00516804540034
0.00516902152729
-1.47380586115e-05
-0.0052411397792
0.00524214039795
-1.57624718299e-05
-0.00531534645908
0.00531637087229
-1.68100224364e-05
-0.00539070476289
0.00539175231348
-1.78801217097e-05
-0.00546725565261
0.00546832575188
-1.89722322667e-05
-0.00554504172883
0.0055461338394
-2.00858608986e-05
-0.00562410728321
0.00562522091186
-2.12205837315e-05
-0.00570449827308
0.00570563299593
-2.23760204335e-05
-0.00578626236689
0.00578741780359
-2.35518430734e-05
-0.00586944892351
0.00587062474614
-2.4747781784e-05
-0.00595410903037
0.00595530496906
-2.59636077729e-05
-0.00604029550258
0.00604151132855
-2.71991580929e-05
-0.00612806288598
0.0061292984363
-2.84543011509e-05
-0.00621746746571
0.00621872260877
-2.97289688517e-05
-0.00630856728711
0.00630984195482
-3.10231302666e-05
-0.00640142215331
0.00640271631472
-3.23368009856e-05
-0.00649609362698
0.00649740729768
-3.36700416438e-05
-0.00659264504437
0.006593978285
-3.50229584702e-05
-0.00669114150924
0.00669249442605
-3.63956889203e-05
-0.00679164992861
0.00679302265906
-3.77884212656e-05
-0.00689423898067
0.00689563171303
-3.92013720022e-05
-0.00699897915043
0.00700039210118
-4.06348030192e-05
-0.00710594272062
0.00710737615165
-4.20890023353e-05
-0.0072152037877
0.00721665798703
-4.35642983593e-05
-0.00732683827091
0.00732831356696
-4.50610411218e-05
-0.00744092390991
0.0074424206527
-4.65796299742e-05
-0.00755754027936
0.00755905886822
-4.81204788438e-05
-0.00767676881476
0.00767830966363
-4.96840324005e-05
-0.00779869279883
0.00780025635236
-5.12707688506e-05
-0.0079233973877
0.00792498412412
-5.28811902011e-05
-0.00805096962691
0.00805258004825
-5.45158240344e-05
-0.00818149845491
0.00818313308876
-5.61752200811e-05
-0.00831507473241
0.00831673412848
-5.78599629201e-05
-0.00845179124212
0.00845347598498
-5.95706473317e-05
-0.00859174273771
0.00859345342212
-6.13079050885e-05
-0.00873502591926
0.00873676317702
-6.30723875764e-05
-0.0088817395018
0.00888350398431
-6.48647642411e-05
-0.00903198420955
0.00903377658624
-6.66857314339e-05
-0.00918586280728
0.00918768377448
-6.85360073604e-05
-0.00934348013002
0.00934533040593
-7.04163400428e-05
-0.0095049431121
0.00950682344476
-7.23274904381e-05
-0.00967036081769
0.00967227196808
-7.42702479721e-05
-0.00983984446288
0.00984178722044
-7.62454267416e-05
-0.0100135074667
0.0100154826455
-7.825386347e-05
-0.010191465481
0.0101934739178
-8.0296410358e-05
-0.0103738364237
0.0103758789706
-8.23739592081e-05
-0.010560740513
0.0105628180618
-8.44874141742e-05
-0.0107523003368
0.0107544137917
-8.66377122938e-05
-0.0109486408679
0.010950791166
-8.8825808124e-05
-0.0111498895242
0.01115207762
-9.10526836952e-05
-0.0113561762198
0.0113584030953
-9.33193531852e-05
-0.0115676334059
0.0115699000754
-9.5626850284e-05
-0.0117843961367
0.0117867036337
-9.79762384133e-05
-0.0120066021128
0.012008951501
-0.000100368610297
-0.012234391751
0.0122367841229
-0.000102805082627
-0.0124679082399
0.0124703447122
-0.000105286801125
-0.0127072975913
0.0127097793098
-0.000107814943025
-0.0129527087286
0.0129552368705
-0.000110390714229
-0.0132042935333
0.0132068693045
-0.000113015351408
-0.0134622069285
0.0134648315657
-0.000115690119538
-0.013726606944
0.0137292817121
-0.000118416316926
-0.0139976547965
0.0140003809939
-0.0001211952726
-0.0142755149586
0.0142782939143
-0.000124028350913
-0.0145603552516
0.0145631883299
-0.000126916946462
-0.0148523469215
0.0148552355171
-0.000129862483923
-0.0151516647194
0.0151546102568
-0.000132866437115
-0.0154584869952
0.0154614909484
-0.000135930295359
-0.0157729957983
0.0157760596566
-0.000139055594773
-0.0160953769453
0.0160985022447
-0.000142243910696
-0.0164258201393
0.0164290084553
-0.000145496850075
-0.0167645190588
0.0167677719982
-0.000148816060834
-0.0171116714613
0.017114990672
-0.000152203227347
-0.0174674792888
0.0174708664554
-0.000155660077679
-0.017832148767
0.0178356056173
-0.000159188373833
-0.0182058905296
0.0182094188257
-0.00016278992768
-0.0185889197183
0.0185925212722
-0.000166466584348
-0.0189814561044
0.0189851327611
-0.00017022024339
-0.0193837242019
0.019387477861
-0.000174052835414
-0.0197959534052
0.0197997859972
-0.000177966343095
-0.0202183780933
0.020222291601
-0.000181962798559
-0.0206512377612
0.0206552342167
-0.000186044275648
-0.0210947771712
0.0210988586483
-0.000190212897037
-0.0215492464632
0.0215534150846
-0.000194470830113
-0.0220149012972
0.0220191592303
-0.000198820299395
-0.0224920030071
0.0224963524764
-0.000203263582139
-0.0229808187205
0.0229852620033
-0.000207798997766
-0.0234812982877
0.0234858397968
-0.000212420770037
-0.0239927829175
0.0239974282116
-0.000217128554944
-0.0245147998684
0.0245195507323
-0.000221922148305
-0.025047353842
0.0250522122142
-0.000226800815707
-0.0255904373745
0.0255954048456
-0.000231763764616
-0.0261440208287
0.0261490991268
-0.000236810128434
-0.0267080495707
0.0267132405599
-0.000241938665891
-0.027282442334
0.0272877477295
-0.000247147972391
-0.0278670883167
0.0278725099118
-0.000252436158043
-0.0284618459791
0.0284673853411
-0.000257801251323
-0.0290665361216
0.0290721950131
-0.000263240658528
-0.0296809444959
0.0296867243542
-0.000268752607987
-0.0303048137387
0.0303107171399
-0.00027433294731
-0.0309378430579
0.0309438705359
-0.000279978404539
-0.0315796822636
0.0315858355939
-0.000285684713793
-0.0322299308599
0.0322362112087
-0.000291448291818
-0.0328881277616
0.0328945373877
-0.000297263998572
-0.0335537576941
0.0335602977351
-0.00030312545896
-0.0342262332258
0.0342329040475
-0.000309026124354
-0.0349049024577
0.0349117047433
-0.000314959343885
-0.0355890339685
0.03559596882
-0.00032091896139
-0.0362778159716
0.0362848855363
-0.000326896174083
-0.0369703539825
0.0369775583434
-0.000332880636209
-0.0376656588328
0.0376729971441
-0.000338863546218
-0.0383626439027
0.0383701175098
-0.000344833732321
-0.0390601160881
0.0390677246461
-0.00035077888491
-0.0397567738529
0.0397645165928
-0.000356686377851
-0.0404511960871
0.0404590726701
-0.000362541846029
-0.0411418399742
0.0411498491029
-0.000368330779221
-0.0418270253067
0.0418351663511
-0.000374036830179
-0.042504939277
0.0425132106143
-0.000379643047071
-0.0431736218541
0.0431820221306
-0.000385132056212
-0.0438309578029
0.0438394861448
-0.000390482053958
-0.0444746789967
0.0444833310265
-0.000395670513658
-0.0451023464496
0.0451111180146
-0.000400674684657
-0.0457113477387
0.0457202354264
-0.000405469786996
-0.0462988942801
0.046307893624
-0.000410030066091
-0.0468620110279
0.0468711175672
-0.00041432780212
-0.0473975380782
0.0474067463631
-0.000418334143979
-0.0479021195694
0.0479114239826
-0.000422018160523
-0.0483722087955
0.048381602579
-0.000425347388771
-0.0488040604358
0.0488135362025
-0.000428288126868
-0.049193734125
0.0492032840992
-0.000430803538851
-0.0495370984012
0.0495467124544
-0.00043285711041
-0.0498298297648
0.0498394987818
-0.000434410805445
-0.0500674247725
0.0500771386963
-0.000435424351969
-0.0502452086886
0.0502549556684
-0.000435855130493
-0.0503583496064
0.0503681157193
-0.000435660942716
-0.0504018723601
0.0504116441796
-0.000434798880666
-0.0503706872339
0.0503804504629
-0.000433225580374
-0.05025961215
0.0502693515969
-0.000430897015679
-0.050063409728
0.0500731087767
-0.000427769518035
-0.049776824502
0.0497864657582
-0.000423799525838
-0.0493946312857
0.0494041958971
-0.000418944944376
-0.0489116903891
0.0489211589143
-0.000413165742434
-0.0483230101621
0.0483323626102
-0.000406423544916
-0.0476238229779
0.0476330377727
-0.000398683768443
-0.0468096688854
0.0468187242933
-0.000389915886856
-0.0458764922393
0.045885365845
-0.000380093322428
-0.0448207505932
0.0448294183118
-0.000369194760331
-0.043639537373
0.0436479737925
-0.000357207826272
-0.0423307161929
0.0423388971813
-0.000344127214016
-0.040893077841
0.0409009775031
-0.000329959687507
-0.0393265029905
0.0393340973959
-0.000314722564331
-0.0376321509062
0.037639415195
-0.000298446653311
-0.0358126590796
0.0358195689203
-0.000281178433452
-0.0338723601543
0.0338788923453
-0.000262981625111
-0.0318175188744
0.0318236512472
-0.000243938816502
-0.029656581747
0.0296622930447
-0.000224155586796
-0.0274004414183
0.0274057136079
-0.000203761685691
-0.0250627172255
0.0250675348227
-0.000182912972964
-0.0226600436205
0.0226643937605
-0.000161795136868
-0.0202123637962
0.0202162381018
-0.000140625362252
-0.0177432305264
0.0177466249888
-0.00011965478909
-0.0152800995481
0.0152830153142
-9.91707410757e-05
-0.0128546147267
0.0128570588357
-7.94991602042e-05
-0.0105028730007
0.0105048595814
-6.10069554823e-05
-0.00826566133842
0.00826721306487
-4.41022816869e-05
-0.00618865286041
0.0061898007841
-2.92359761063e-05
-0.00432254571374
0.00432333081988
-1.6901727283e-05
-0.00272313022259
0.00272360441528
-7.63465029781e-06
-0.00145126741067
0.00145149375455
-2.01052607413e-06
-0.000572752021989
0.000572806660571
-5.35530420278e-07
-0.000151824919709
0.000151796425715
-4.92644971821e-07
-6.08637847876e-05
6.08208993465e-05
-4.54105356157e-07
-5.49989217542e-05
5.49603821651e-05
-4.19822336999e-07
-4.91540919967e-05
4.91198089897e-05
-3.89884151633e-07
-4.33264809662e-05
4.3296542765e-05
-3.63810622701e-07
-3.75136413754e-05
3.74875678476e-05
-3.4194563863e-07
-3.17124192786e-05
3.16905543138e-05
-3.24181591049e-07
-2.59202834461e-05
2.59025193907e-05
-3.10507746703e-07
-2.01344033134e-05
2.01207294559e-05
-3.00531653964e-07
-1.43521339498e-05
1.43421578931e-05
-2.94633141235e-07
-8.57007383367e-06
8.56417536875e-06
-2.78013374146e-06
2.77818293732e-06
-1.42044423542e-06
-0.0039356110855
-3.30874511972e-06
-0.00400493913538
-5.29321934426e-06
-0.00406224332733
-7.32105929641e-06
-0.0041217676932
-9.42197434363e-06
-0.00418087600764
-1.15849457064e-05
-0.00424110792815
-1.38125431512e-05
-0.00430174774946
-1.61020691106e-05
-0.00436322756681
-1.84527312634e-05
-0.00442539769708
-2.08635171887e-05
-0.00448834985319
-2.33334457346e-05
-0.00455207675242
-2.58616502479e-05
-0.00461661196993
-2.84472689672e-05
-0.00468197576452
-3.10895292254e-05
-0.00474819492852
-3.37877033325e-05
-0.00481529597074
-3.65411262272e-05
-0.00488330738441
-3.93491844586e-05
-0.0049522590066
-4.22113371201e-05
-0.00502218219795
-4.51271064868e-05
-0.00509310985091
-4.80960804909e-05
-0.00516507642632
-5.11179017521e-05
-0.00523811795793
-5.41922868611e-05
-0.00531227207397
-5.73190261273e-05
-0.00538757802362
-6.04979778019e-05
-0.00546407670093
-6.37290559652e-05
-0.00554181065067
-6.70122685975e-05
-0.00562082407058
-7.0347669435e-05
-0.00570116287225
-7.37354021665e-05
-0.00578287463418
-7.71756781487e-05
-0.00586600864755
-8.06687698154e-05
-0.00595061593871
-8.42150374607e-05
-0.00603674923492
-8.78149029129e-05
-0.00612446302051
-9.14688604684e-05
-0.00621381350814
-9.5177468181e-05
-0.0063048586794
-9.89413670766e-05
-0.00639765825445
-0.000102761263042
-0.00649227373105
-0.000106637931256
-0.00658876837617
-0.000110572208046
-0.00668720723244
-0.000114565007824
-0.0067876571288
-0.000118617305742
-0.00689018668273
-0.000122730146047
-0.00699486631011
-0.000126904626598
-0.00710176824006
-0.000131141927328
-0.00721096648696
-0.000135443282995
-0.00732253691523
-0.000139809995295
-0.0074365571976
-0.000144243414483
-0.00755310686017
-0.000148744972668
-0.0076722672566
-0.00015331614991
-0.00779412162161
-0.000157958497636
-0.00791875503998
-0.000162673619487
-0.00804625450505
-0.0001674631846
-0.00817670888978
-0.000172328928079
-0.00831020898894
-0.000177272632543
-0.00844684753768
-0.000182296159255
-0.00858671921101
-0.000187401414947
-0.00872992066356
-0.000192590375873
-0.00887655054086
-0.000197865083193
-0.00902670950223
-0.000203227640471
-0.00918050025001
-0.000208680206127
-0.00933802756437
-0.000214225014294
-0.00949939830392
-0.000219864357218
-0.00966472147472
-0.000225600601903
-0.00983410821815
-0.000231436167012
-0.0100076719016
-0.000237373552843
-0.0101855280952
-0.000243415327394
-0.0103677946491
-0.000249564124289
-0.0105545917161
-0.000255822649243
-0.0107460418118
-0.000262193681606
-0.0109422698356
-0.000268680077682
-0.0111434031282
-0.000275284767847
-0.0113495715297
-0.000282010754949
-0.0115609074189
-0.000288861129069
-0.0117775457626
-0.00029583904782
-0.0119996241941
-0.000302947758868
-0.0122272830399
-0.000310190596199
-0.0124606654026
-0.000317570967116
-0.0126999172204
-0.000325092374622
-0.0129451873211
-0.000332758404631
-0.0131966275033
-0.000340572735344
-0.0134543925978
-0.000348539131974
-0.0137186405474
-0.000356661461123
-0.0139895324674
-0.000364943678095
-0.0142672327417
-0.000373389833833
-0.0145519090958
-0.000382004084188
-0.0148437326712
-0.000390790684632
-0.0151428781189
-0.000399753987538
-0.0154495236923
-0.000408898461128
-0.0157638513247
-0.000418228674671
-0.0160860467317
-0.000427749302746
-0.0164162995112
-0.000437465141382
-0.0167548032202
-0.000447381095985
-0.0171017555067
-0.000457502186068
-0.0174573581988
-0.000467833556607
-0.0178218173965
-0.000478380467847
-0.0181953436183
-0.000489148311301
-0.0185781518749
-0.000500142602603
-0.0189704618131
-0.000511368979075
-0.0193724978254
-0.000522833222639
-0.0197844891616
-0.00053454124758
-0.0202066700684
-0.000546499097675
-0.0206392799112
-0.000558712966781
-0.0210825633021
-0.000571189192221
-0.0215367702378
-0.000583934256445
-0.022002156233
-0.000596954795244
-0.0224789824683
-0.000610257592727
-0.022967515923
-0.000623833278945
-0.0234677043235
-0.00063765764414
-0.023978887996
-0.000651730173445
-0.0245005981188
-0.000666050410169
-0.0250328392935
-0.000680617119263
-0.0255756042885
-0.000695428393081
-0.0261288635519
-0.000710481839073
-0.0266925623042
-0.00072577452113
-0.0272666191462
-0.000741302532093
-0.0278509235218
-0.000757060998554
-0.0284453340807
-0.000773044249816
-0.0290496715888
-0.000789245068746
-0.029663722455
-0.000805656935993
-0.030287227667
-0.000822269964183
-0.0309198887859
-0.000839074030862
-0.0315613547737
-0.000856057481051
-0.0322112255123
-0.000873207658225
-0.0328690396894
-0.000890510959715
-0.033534281669
-0.000907948196206
-0.0342063682176
-0.000925501475553
-0.034884644665
-0.000943151718684
-0.0355683792158
-0.000960877925059
-0.0362567603517
-0.000978651503229
-0.0369488994329
-0.000996448253648
-0.0376438010568
-0.00101423853212
-0.0383403821078
-0.00103199123659
-0.0390374488996
-0.00104966724154
-0.0397337057793
-0.00106723007277
-0.0404277267448
-0.0010846404468
-0.041117969449
-0.00110185021887
-0.0418027601078
-0.00111881137771
-0.0424802832484
-0.00113547404015
-0.0431485780902
-0.00115177901604
-0.0438055360006
-0.00116766827576
-0.0444488849137
-0.00118307755415
-0.0450761892367
-0.00119793718498
-0.0456848390551
-0.00121217371591
-0.0462720466451
-0.001225706696
-0.0468348410199
-0.00123845554637
-0.0473700594742
-0.0012503305927
-0.0478743523516
-0.00126124082447
-0.0483441714641
-0.00127109039139
-0.0487757736233
-0.00127977636286
-0.0491652229933
-0.00128719281107
-0.0495083887662
-0.00129322813173
-0.0498009510438
-0.00129776481959
-0.0500384105443
-0.00130068267625
-0.0502160938988
-0.00130185928625
-0.0503291705923
-0.00130116531885
-0.0503726721477
-0.00129847403304
-0.0503415067426
-0.00129365281833
-0.0502304994847
-0.00128657069907
-0.0500344136442
-0.00127709749001
-0.0497479963719
-0.00126510232794
-0.049366027855
-0.00125046031805
-0.0488833686012
-0.00123304925398
-0.0482950321095
-0.00121275638428
-0.0475962510224
-0.00118947653107
-0.0467825696602
-0.0011631162599
-0.0458499348497
-0.00113359725883
-0.0447948058732
-0.00110085981541
-0.0436142773256
-0.00106486441764
-0.0423062155984
-0.00102559923361
-0.0408694102901
-0.000983080955
-0.0393037438629
-0.000937362052294
-0.0376103742476
-0.000888535311321
-0.0357919375039
-0.00083673898324
-0.0338527644252
-0.000782164624512
-0.0317991150693
-0.00072506277696
-0.0296394308187
-0.000665748470759
-0.027384599126
-0.000604609681642
-0.025048231239
-0.000542115762387
-0.022646950696
-0.00047882192683
-0.0202006908417
-0.000415379226896
-0.0177329899855
-0.000352540925247
-0.0152712880407
-0.000291170065768
-0.0128472099545
-0.00023224464231
-0.0104968322892
-0.000176863085314
-0.00826091882949
-0.00012624921706
-0.00618511589538
-8.17551424491e-05
-0.00432009158722
-4.48600781318e-05
-0.00272160490021
-1.71703107229e-05
-0.00145048057531
-4.11834690203e-07
-0.000572476398915
3.89711585923e-06
-0.000151794922989
3.91652742759e-06
-6.08831963183e-05
3.93386856837e-06
-5.50162628773e-05
3.94918219685e-06
-4.91694056417e-05
3.96259402162e-06
-4.33398927863e-05
3.97400193395e-06
-3.75250492618e-05
3.98360534647e-06
-3.17220226962e-05
3.99141582442e-06
-2.59280939308e-05
3.99748946473e-06
-2.01404769007e-05
4.00171817702e-06
-1.43563626e-05
4.00427060183e-06
-8.57262626019e-06
-2.78095856906e-06
-2.35430292376e-06
-0.0039318427978
-5.78602058557e-06
-0.00400150741768
-9.33466596749e-06
-0.00405869468192
-1.29511858221e-05
-0.00411815117334
-1.66626513254e-05
-0.00417716454216
-2.04599830682e-05
-0.00423731059645
-2.43448850465e-05
-0.00429786284753
-2.831550094e-05
-0.00435925695096
-3.23711395863e-05
-0.00442134205846
-3.65112143636e-05
-0.00448420977843
-4.0735042371e-05
-0.0045478529244
-4.50420865711e-05
-0.0046123049257
-4.94318428749e-05
-0.00467758600819
-5.39038772068e-05
-0.00474372289416
-5.84578132702e-05
-0.00481074203464
-6.30933433581e-05
-0.00487867185429
-6.78102331169e-05
-0.00494754211682
-7.26083248166e-05
-0.00501738410624
-7.74875232209e-05
-0.0050882306525
-8.24478060824e-05
-0.00516011614347
-8.74892454447e-05
-0.00523307651858
-9.26119832041e-05
-0.00530714933622
-9.7816245841e-05
-0.00538237376098
-0.00010310233679
-0.00545879060998
-0.000108470654809
-0.00553644233265
-0.00011392167566
-0.00561537304974
-0.000119455969849
-0.0056956285781
-0.000125074195698
-0.00577725640839
-0.000130777092617
-0.00586030575068
-0.000136565509754
-0.00594482752161
-0.00014244036352
-0.00603087438117
-0.000148402682876
-0.00611850070116
-0.000154453577793
-0.00620776261323
-0.000160594262312
-0.00629871799492
-0.000166826030687
-0.00639142648612
-0.000173150279982
-0.0064859494818
-0.000179568495956
-0.00658235016023
-0.000186082263057
-0.00668069346536
-0.000192693254502
-0.00678104613737
-0.000199403238396
-0.00688347669885
-0.000206214078204
-0.00698805547031
-0.000213127737462
-0.00709485458081
-0.000220146260438
-0.00720394796398
-0.000227271788654
-0.00731541138701
-0.000234506566002
-0.00742932242027
-0.000241852923128
-0.00754576050307
-0.000249313287055
-0.0076648068927
-0.000256890184438
-0.00778654472425
-0.000264586217851
-0.00791105900656
-0.000272404113145
-0.00803843660973
-0.000280346670992
-0.00816876633192
-0.000288416797764
-0.00830213886216
-0.000296617494502
-0.00843864684093
-0.000304951861623
-0.00857838484387
-0.000313423096341
-0.00872144942882
-0.000322034506289
-0.00886793913089
-0.000330789485057
-0.00901795452346
-0.000339691540317
-0.00917159819476
-0.000348744282485
-0.00932897482221
-0.000357951423818
-0.00949019116257
-0.000367316791191
-0.00965535610732
-0.00037684430771
-0.0098245807016
-0.000386538021282
-0.00999797818799
-0.000396402085358
-0.0101756640311
-0.000406440771763
-0.0103577559627
-0.000416658456817
-0.0105443740311
-0.000427059655979
-0.0107356406127
-0.000437648989625
-0.0109316805019
-0.000448431207445
-0.0111326209104
-0.000459411181391
-0.0113385915558
-0.000470593912998
-0.0115497246873
-0.00048198453449
-0.011766155141
-0.000493588313233
-0.0119880204153
-0.000505410643787
-0.0122154607094
-0.000517457067027
-0.0124486189794
-0.000529733261851
-0.0126876410255
-0.000542245047384
-0.0129326755355
-0.000554998392324
-0.0131838741583
-0.000567999409168
-0.013441391581
-0.000581254375586
-0.013705385581
-0.000594769711714
-0.0139760171312
-0.000608551996845
-0.0142534504565
-0.000622607980934
-0.0145378531118
-0.000636944569249
-0.0148293960829
-0.000651568841108
-0.0151282538471
-0.000666488046855
-0.0154346044866
-0.000681709607268
-0.0157486297643
-0.000697241127207
-0.0160705152118
-0.000713090397366
-0.0164004502411
-0.000729265381935
-0.0167386282357
-0.000745774248984
-0.0170852466397
-0.000762625355486
-0.0174405070923
-0.000779827256018
-0.017804615496
-0.00079738871155
-0.0181777821628
-0.000815318684406
-0.018560221902
-0.000833626354201
-0.0189521541433
-0.00085232111471
-0.0193538030649
-0.00087141258026
-0.019765397696
-0.0008909105897
-0.020187172059
-0.000910825212861
-0.020619365288
-0.000931166757305
-0.0210622217577
-0.000951945770309
-0.0215159912247
-0.000973173040425
-0.0219809289628
-0.000994859615952
-0.0224572958927
-0.0010170168039
-0.022945358735
-0.00103962755766
-0.0234450631144
-0.00106264926031
-0.0239557487296
-0.00108608099968
-0.0244769510674
-0.00110992232284
-0.0250086742008
-0.00113417129883
-0.0255509114653
-0.00115882496444
-0.026103633363
-0.00118387980931
-0.0266667846111
-0.00120933080391
-0.0272402842026
-0.00123517138324
-0.0278240219087
-0.00126139415316
-0.0284178559136
-0.00128798926227
-0.0290216080548
-0.00131494541233
-0.0296350647056
-0.00134225116858
-0.0302579654065
-0.00136988968202
-0.0308900154407
-0.00139784544321
-0.0315308606261
-0.00142610026987
-0.0321801015943
-0.00145463054397
-0.0328372804204
-0.00148341300229
-0.0335018789354
-0.00151241840995
-0.0341733175636
-0.00154161905435
-0.034850937657
-0.00157097941628
-0.0355340126248
-0.00160046125893
-0.0362217309125
-0.00163002831141
-0.0369131990047
-0.00165963023156
-0.0376074325002
-0.00168922328453
-0.0383033384428
-0.00171874711232
-0.0389997363702
-0.00174814974807
-0.0396953186721
-0.00177736206722
-0.0403886727707
-0.00180631630845
-0.0410782510564
-0.00183493782749
-0.0417623825664
-0.00186314734674
-0.0424392522423
-0.00189085761473
-0.0431069029098
-0.00191797638975
-0.0437632264202
-0.00194440243388
-0.0444059550737
-0.00197002883166
-0.0450326542187
-0.00199473883924
-0.0456407189496
-0.00201841035419
-0.0462273620255
-0.00204091202745
-0.0467896168082
-0.00206210510563
-0.0473243231163
-0.00208184388377
-0.0478281334287
-0.00209997479756
-0.0482975027207
-0.00211633776838
-0.0487286898076
-0.00213076140078
-0.0491177659194
-0.00214306873779
-0.0494606019057
-0.00215307292007
-0.0497528843129
-0.00216058301784
-0.0499901150311
-0.00216539947623
-0.050167627107
-0.00216731786574
-0.0502805935245
-0.00216612961437
-0.0503240495716
-0.00216161784079
-0.0502929125403
-0.00215356623538
-0.0501820091592
-0.00214175487188
-0.0499861101238
-0.00212596261075
-0.0496999694748
-0.00210597481828
-0.0493183687169
-0.00208157936891
-0.048836176125
-0.00205257435223
-0.0482484080413
-0.0020187648807
-0.0475503062886
-0.00197997542108
-0.0467374155696
-0.00193605101209
-0.0458056858252
-0.00188686077179
-0.0447515803369
-0.00183230478462
-0.0435721956718
-0.00177231888342
-0.0422654007598
-0.00170688162667
-0.0408299866131
-0.00163602254941
-0.0392658352253
-0.0015598288623
-0.037574104245
-0.00147845698289
-0.0357574253139
-0.00139213940244
-0.0338201258252
-0.00130119494988
-0.0317684605096
-0.00120604039425
-0.029610862555
-0.00110720197498
-0.0273582087421
-0.00100532707693
-0.025024097239
-0.000901196066637
-0.0226251360119
-0.000795735867471
-0.0201812385036
-0.000690031333746
-0.0177159206808
-0.000585337861998
-0.0152565958558
-0.000483092547925
-0.0128348586765
-0.000384925092044
-0.0104867506823
-0.000292666581873
-0.00825299631781
-0.000208356416274
-0.00617919786835
-0.000134246210944
-0.00431597490121
-7.2801425313e-05
-0.00271903216584
-2.66971002337e-05
-0.00144913609406
1.18993931923e-06
-0.00057198057001
8.33119242857e-06
-0.000151706455977
8.32710486289e-06
-6.08791087307e-05
8.32318607889e-06
-5.50123440939e-05
8.31950078401e-06
-4.91657203442e-05
8.31611875132e-06
-4.33365107361e-05
8.31305509787e-06
-3.7521985603e-05
8.31039381037e-06
-3.17193614144e-05
8.30817382203e-06
-2.59258739256e-05
8.30642613865e-06
-2.01387291884e-05
8.30514299909e-06
-1.43550794583e-05
8.30438122831e-06
-8.57186450198e-06
-2.78071371446e-06
-3.28909981062e-06
-0.00392657488255
-8.26464127168e-06
-0.00399653187624
-1.33776327919e-05
-0.00405358169037
-1.8582626237e-05
-0.00411294617986
-2.39045382918e-05
-0.00417184263005
-2.93356400314e-05
-0.00423187949465
-3.48772284878e-05
-0.00429232125902
-4.05280788797e-05
-0.00435360610054
-4.62877081051e-05
-0.00441558242923
-5.21559322704e-05
-0.00447834155429
-5.8132360669e-05
-0.00454187649605
-6.42168432569e-05
-0.00460622044317
-7.04091919634e-05
-0.00467139365954
-7.67093376168e-05
-0.00473742274855
-8.31172625013e-05
-0.00480433410978
-8.96330367404e-05
-0.00487215608005
-9.62567998462e-05
-0.0049409183537
-0.000102988773606
-0.00501065213246
-0.000109829259285
-0.00508139016681
-0.000116778655515
-0.00515316674724
-0.000123837445121
-0.005226017729
-0.000131006203348
-0.00529998057802
-0.000138285590198
-0.00537509437417
-0.000145676378901
-0.0054513998213
-0.000153179440323
-0.00552893927125
-0.000160795737251
-0.00560775675284
-0.000168526346865
-0.00568789796851
-0.000176372447785
-0.00576941030749
-0.000184335328758
-0.00585234286973
-0.000192416381112
-0.00593674646926
-0.000200617121964
-0.00602267364032
-0.000208939164412
-0.00611017865872
-0.000217384249563
-0.00619931752811
-0.000225954226757
-0.00629014801776
-0.000234651063738
-0.00638272964918
-0.000243476843029
-0.00647712370253
-0.000252433767711
-0.00657339323556
-0.000261524159982
-0.0066716030731
-0.000270750464216
-0.00677181983316
-0.000280115238606
-0.00687411192449
-0.000289621168719
-0.00697854954022
-0.000299271060909
-0.00708520468862
-0.000309067840465
-0.00719415118441
-0.000319014568618
-0.00730546465885
-0.000329114411633
-0.00741922257725
-0.000339370679039
-0.00753550423569
-0.000349786798693
-0.00765439077307
-0.000360366319325
-0.00777596520363
-0.000371112938808
-0.00790031238709
-0.00038203045932
-0.00802751908924
-0.000393122834879
-0.00815767395639
-0.000404394130951
-0.00829086756612
-0.000415848570898
-0.008427192401
-0.000427490492328
-0.00856674292243
-0.000439324386118
-0.008709615535
-0.000451354862948
-0.00885590865404
-0.000463586698033
-0.00900572268836
-0.000476024790592
-0.00915916010219
-0.000488674189436
-0.00931632542335
-0.00050154009761
-0.00947732525437
-0.000514627857135
-0.00964226834777
-0.00052794296954
-0.00981126558917
-0.000541491090561
-0.00998443006695
-0.000555278027664
-0.010161877094
-0.00056930975068
-0.0103437242397
-0.000583592400904
-0.0105300913808
-0.000598132267959
-0.0107211007456
-0.000612935827356
-0.0109168769426
-0.000628009717744
-0.0111175470201
-0.000643360753551
-0.01132324052
-0.000658995932196
-0.0115340895086
-0.000674922424989
-0.0117502286482
-0.000691147598747
-0.0119717952416
-0.000707679002567
-0.0121989293056
-0.000724524379643
-0.0124317736023
-0.000741691670993
-0.0126704737342
-0.000759189019397
-0.0129151781871
-0.000777024768819
-0.0131660384089
-0.000795207476031
-0.0134232088738
-0.000813745904513
-0.0136868471525
-0.000832649038101
-0.0139571139977
-0.000851926089874
-0.0142341734048
-0.000871586482105
-0.0145181927195
-0.000891639886775
-0.0148093426782
-0.000912096195393
-0.0151077975385
-0.000932965546771
-0.0154137351352
-0.00095425832854
-0.0157273369825
-0.000975985169533
-0.0160487883708
-0.00099815696302
-0.0163782784476
-0.00102078485839
-0.0167160003403
-0.00104388026963
-0.0170621512284
-0.00106745489103
-0.0174169324709
-0.00109152068476
-0.0177805497023
-0.0011160899038
-0.0181532129438
-0.00114117508871
-0.0185351367171
-0.00116678907591
-0.0189265401561
-0.00119294500626
-0.0193276471346
-0.00121965632443
-0.0197386863779
-0.00124693679663
-0.0201598915868
-0.00127480050989
-0.0205915015748
-0.00130326187837
-0.0210337603892
-0.00133233565382
-0.0214869174493
-0.00136203693626
-0.0219512276804
-0.00139238117196
-0.022426951657
-0.00142338417416
-0.0229143557328
-0.00145502122266
-0.0234133834449
-0.00148723127355
-0.0239233741528
-0.00152001347542
-0.0244438675449
-0.00155336647857
-0.0249748680949
-0.00158728788839
-0.0255163689089
-0.00162177480886
-0.026068339621
-0.00165682109774
-0.0266307267248
-0.00169242083696
-0.027203447412
-0.00172856441855
-0.0277863934525
-0.00176524035221
-0.0283794231016
-0.00180243622811
-0.0289823571766
-0.00184013852747
-0.0295949810858