/*--------------------------------*- C++ -*----------------------------------*\
| =========                 |                                                 |
| \\      /  F ield         | OpenFOAM: The Open Source CFD Toolbox           |
|  \\    /   O peration     | Version:  2412                                  |
|   \\  /    A nd           | Website:  www.openfoam.com                      |
|    \\/     M anipulation  |                                                 |
\*---------------------------------------------------------------------------*/
FoamFile
{
    version     2.0;
    format      ascii;
    arch        "LSB;label=32;scalar=64";
    class       volScalarField;
    location    "2";
    object      rAU;
}
// * * * * * * * * * * * * * * * * * * * * * * * * * * * * * * * * * * * * * //

dimensions      [-1 3 1 0 0 0 0];

internalField   nonuniform List<scalar> 
64000
(
0.0166506311776
0.0167416005128
0.016850995055
0.0169587751089
0.0170684614011
0.0171779854533
0.0172882573752
0.0173987011683
0.0175094859579
0.0176204817054
0.0177316791998
0.0178430212966
0.0179544669604
0.0180659685872
0.0181774798181
0.0182889531899
0.0184003410226
0.0185115953466
0.0186226680675
0.0187335110833
0.0188440764316
0.0189543164005
0.0190641836571
0.0191736313759
0.0192826133516
0.0193910841195
0.0194989990615
0.0196063145166
0.0197129878877
0.0198189777272
0.019924243831
0.0200287473229
0.0201324507303
0.0202353180504
0.0203373148148
0.0204384081495
0.0205385668153
0.0206377612467
0.0207359635891
0.0208331477216
0.0209292892707
0.0210243656223
0.0211183559284
0.0212112410999
0.0213030037968
0.0213936284127
0.0214831010508
0.0215714095017
0.021658543207
0.0217444932206
0.021829252171
0.0219128142181
0.021995174999
0.0220763315795
0.0221562824032
0.0222350272302
0.0223125670834
0.0223889041897
0.0224640419166
0.0225379847126
0.0226107380488
0.0226823083566
0.0227527029643
0.0228219300395
0.0228899985318
0.0229569181103
0.023022699107
0.0230873524636
0.023150889676
0.0232133227425
0.0232746641112
0.0233349266329
0.0233941235146
0.0234522682735
0.0235093746958
0.0235654567957
0.0236205287768
0.0236746049962
0.0237276999305
0.0237798281439
0.0238310042587
0.0238812429268
0.0239305588047
0.0239789665292
0.0240264806965
0.0240731158406
0.0241188864159
0.0241638067812
0.0242078911829
0.0242511537428
0.0242936084459
0.0243352691293
0.0243761494729
0.0244162629916
0.0244556230279
0.0244942427462
0.0245321351274
0.0245693129654
0.024605788864
0.0246415752334
0.0246766842893
0.0247111280518
0.024744918345
0.0247780667965
0.0248105848383
0.0248425024175
0.0248738827492
0.0249047725649
0.0249351847859
0.0249651316224
0.0249946250656
0.0250236769241
0.0250522988075
0.0250805021333
0.02510829808
0.0251356977434
0.0251627119177
0.0251893512371
0.0252156261837
0.0252415470269
0.0252671238042
0.0252923664571
0.0253172845576
0.0253418877137
0.0253661851335
0.0253901859263
0.0254138989398
0.0254373327622
0.0254604958424
0.0254833963251
0.0255060421808
0.0255284410674
0.0255506003975
0.0255725272589
0.0255942285363
0.0256157106971
0.0256369799086
0.025658042026
0.0256789024777
0.0256995663666
0.0257200383719
0.0257403227054
0.025760423136
0.0257803428927
0.0258000847166
0.0258196507446
0.0258390425463
0.0258582610551
0.0258773065223
0.0258961785012
0.0259148757732
0.0259333963269
0.025951737316
0.0259698950135
0.025987864726
0.0260056407822
0.0260232164641
0.0260405839762
0.0260577343911
0.0260746575943
0.0260913422458
0.0261077757314
0.0261239441326
0.0261398321838
0.0261554232438
0.026170699274
0.026185640822
0.0262002270057
0.0262144355397
0.0262282427484
0.0262416235911
0.0262545517207
0.0262669995518
0.0262789383625
0.0262903384108
0.0263011690801
0.0263113990568
0.0263209965472
0.0263299295231
0.0263381660121
0.026345674425
0.0263524239298
0.0263583848686
0.0263635292247
0.0263678311372
0.0263712674648
0.0263738183931
0.026375468091
0.0263762156496
0.0263763724781
0.0263763856957
0.0263763978889
0.0263764091279
0.0263764194787
0.0263764290027
0.0263764377571
0.0263764457953
0.0263764531679
0.0263764599215
0.0263764656747
0.0166518591384
0.0167407325323
0.0168479559568
0.0169535382864
0.01706112134
0.0171685789927
0.0172768411583
0.0173853246079
0.0174942014781
0.0176033416124
0.0177127360582
0.0178223279652
0.0179320764792
0.0180419341979
0.0181518549103
0.0182617912906
0.0183716957612
0.0184815204181
0.01859121719
0.0187007379629
0.0188100347292
0.0189190596913
0.0190277653767
0.0191361047752
0.019244031461
0.0193514996899
0.0194584645194
0.0195648819191
0.0196707088601
0.0197759034222
0.019880424875
0.0199842337649
0.0200872919953
0.0201895628932
0.0202910112713
0.0203916034843
0.0204913074787
0.0205900928361
0.0206879308049
0.0207847943263
0.0208806580554
0.0209754983758
0.0210692934031
0.0211620229809
0.0212536686764
0.0213442137718
0.0214336432385
0.0215219437122
0.0216091034687
0.0216951123861
0.021779961908
0.0218636450011
0.0219461561102
0.0220274911062
0.0221076472394
0.0221866230858
0.0222644184867
0.022341034496
0.0224164733239
0.0224907382741
0.0225638336867
0.022635764879
0.0227065380862
0.0227761604028
0.0228446397243
0.0229119846903
0.0229782046285
0.0230433095
0.0231073098459
0.0231702167349
0.0232320417147
0.0232927967624
0.0233524942389
0.023411146845
0.0234687675767
0.0235253696876
0.0235809666496
0.023635572116
0.0236891998882
0.0237418638837
0.0237935781047
0.0238443566114
0.0238942134956
0.0239431628562
0.0239912187766
0.0240383953052
0.024084706435
0.0241301660872
0.0241747880962
0.0242185861943
0.0242615739991
0.024303765003
0.0243451725622
0.0243858098882
0.0244256900404
0.0244648259187
0.0245032302592
0.0245409156283
0.0245778944185
0.0246141788468
0.0246497809509
0.0246847125877
0.0247189854327
0.0247526109788
0.0247856005372
0.0248179822448
0.0248498187692
0.0248811606146
0.0249120207251
0.0249424112588
0.0249723441851
0.025001831311
0.0250308842338
0.0250595143678
0.0250877328928
0.0251155509311
0.0251429792916
0.0251700286945
0.0251967095678
0.0252230322691
0.0252490068661
0.0252746433872
0.0252999514342
0.0253249406228
0.0253496202969
0.0253739996257
0.0253980875232
0.0254218925988
0.0254454234489
0.0254686882396
0.0254916950149
0.0255144514732
0.0255369651957
0.0255592432922
0.0255812926876
0.0256031199748
0.0256247313884
0.0256461328404
0.0256673298463
0.0256883275177
0.0257091305956
0.0257297433567
0.0257501696206
0.0257704126844
0.0257904752996
0.0258103596513
0.0258300672995
0.0258495991835
0.0258689555517
0.025888135944
0.0259071391295
0.0259259630775
0.0259446048813
0.0259630607324
0.0259813258814
0.025999394551
0.0260172599285
0.0260349140831
0.0260523479293
0.0260695511921
0.0260865123342
0.0261032185285
0.0261196556161
0.0261358080727
0.0261516589725
0.026167189963
0.0261823812609
0.0261972116362
0.0262116584109
0.0262256974974
0.0262393034255
0.0262524493932
0.0262651073432
0.0262772480555
0.026288841276
0.0262998558653
0.0263102599801
0.0263200212871
0.0263291072195
0.0263374852675
0.0263451233141
0.0263519900153
0.0263580552283
0.0263632904833
0.0263676695065
0.0263711687923
0.0263737682224
0.0263754517296
0.0263762117602
0.0263763669734
0.0263763803553
0.0263763927181
0.0263764041307
0.0263764146574
0.026376424359
0.0263764332917
0.0263764415082
0.0263764490579
0.0263764559874
0.0263764623447
0.0166554104567
0.0167421997755
0.0168472351973
0.0169506092903
0.0170560778731
0.0171614605358
0.017267704035
0.017374219487
0.0174811810796
0.0175884587173
0.0176960434627
0.0178038787168
0.0179119236854
0.0180201310852
0.0181284547805
0.0182368475095
0.0183452617231
0.0184536495147
0.0185619627906
0.0186701533889
0.0187781732057
0.0188859743061
0.0189935090512
0.0191007302284
0.0192075911582
0.019314045803
0.0194200488833
0.0195255559801
0.0196305236403
0.0197349094608
0.0198386721869
0.0199417717976
0.0200441695753
0.020145828179
0.0202467117121
0.0203467857798
0.0204460175334
0.0205443757174
0.0206418307043
0.0207383545243
0.0208339208849
0.0209285051847
0.0210220845269
0.0211146377204
0.021206145268
0.0212965893624
0.0213859538689
0.0214742242991
0.0215613877925
0.0216474330782
0.0217323504391
0.0218161316791
0.0218987700749
0.0219802603294
0.0220605985264
0.0221397820773
0.0222178096677
0.0222946812048
0.0223703977604
0.022444961514
0.0225183756953
0.0225906445291
0.0226617731753
0.0227317676704
0.0228006348743
0.0228683824144
0.022935018627
0.0230005525055
0.0230649936496
0.0231283522124
0.0231906388511
0.0232518646794
0.0233120412217
0.0233711803694
0.0234292943386
0.0234863956287
0.023542496986
0.0235976113663
0.0236517519011
0.0237049318641
0.0237571646424
0.0238084637082
0.0238588425906
0.0239083148525
0.0239568940676
0.0240045937984
0.0240514275781
0.024097408892
0.0241425511608
0.0241868677273
0.0242303718419
0.0242730766505
0.0243149951845
0.0243561403509
0.0243965249242
0.024436161539
0.0244750626832
0.0245132406934
0.0245507077497
0.0245874758722
0.0246235569176
0.0246589625772
0.0246937043753
0.0247277936672
0.0247612416395
0.0247940745582
0.0248263544866
0.0248581357656
0.0248894313699
0.0249202533917
0.024950613774
0.0249805243174
0.0250099966006
0.0250390420338
0.0250676718066
0.0250958970383
0.025123728559
0.025151177181
0.0251782532675
0.0252049672953
0.0252313293153
0.0252573493916
0.025283037274
0.0253084025132
0.0253334545867
0.025358202687
0.0253826558716
0.0254068227228
0.0254307118847
0.025454331721
0.0254776902402
0.0255007952736
0.0255236543839
0.0255462749072
0.0255686637364
0.0255908275283
0.0256127725968
0.0256345048957
0.0256560300238
0.0256773531615
0.0256984790891
0.0257194121781
0.02574015625
0.0257607146858
0.025781090251
0.0258012851774
0.0258213010055
0.0258411386856
0.0258607984839
0.0258802799093
0.0258995817088
0.0259187017825
0.0259376371847
0.0259563840306
0.0259749375012
0.0259932917333
0.0260114398022
0.0260293736691
0.0260470841099
0.0260645606904
0.026081791704
0.0260987641233
0.026115463559
0.0261318742271
0.0261479789195
0.0261637589819
0.0261791942941
0.0261942632731
0.0262089428655
0.0262232085752
0.0262370345051
0.0262503934052
0.0262632567521
0.0262755948439
0.0262873769249
0.0262985713412
0.0263091457274
0.0263190672208
0.0263283027245
0.0263368192037
0.0263445840276
0.0263515653542
0.0263577325652
0.0263630567482
0.0263675112282
0.0263710721461
0.0263737190894
0.0263754336242
0.0263762051002
0.0263763599919
0.0263763737217
0.0263763864118
0.0263763981326
0.0263764089498
0.0263764189249
0.0263764281153
0.0263764365749
0.0263764443539
0.0263764514995
0.026376458061
0.0166612954224
0.0167460122808
0.0168488421855
0.0169499966254
0.0170533373495
0.0171566345477
0.0172608488444
0.0173653870626
0.0174704246423
0.0175758316549
0.0176815989392
0.0177876700678
0.0178940041769
0.0180005540366
0.0181072734864
0.0182141152426
0.0183210317139
0.0184279749385
0.0185348967426
0.0186417488497
0.018748483015
0.0188550511378
0.0189614053808
0.019067498292
0.0191732829094
0.0192787128811
0.019383742572
0.0194883271664
0.0195924227688
0.0196959864976
0.0197989765708
0.0199013523954
0.0200030746428
0.0201041053142
0.0202044078143
0.020303947006
0.0204026892597
0.0205006024993
0.0205976562398
0.0206938216178
0.0207890714157
0.0208833800759
0.0209767237146
0.0210690801222
0.021160428764
0.0212507507718
0.0213400289281
0.0214282476515
0.0215153929657
0.0216014524771
0.0216864153391
0.0217702722156
0.0218530152407
0.0219346379736
0.0220151353545
0.0220945036576
0.0221727404357
0.0222498444684
0.0223258157137
0.022400655247
0.0224743652085
0.0225469487479
0.0226184099671
0.0226887538647
0.0227579862818
0.0228261138458
0.0228931439179
0.0229590845394
0.0230239443797
0.0230877326883
0.0231504592431
0.023212134305
0.0232727685722
0.0233323731356
0.0233909594381
0.0234485392337
0.0235051245492
0.0235607276484
0.0236153609975
0.0236690372329
0.0237217691306
0.0237735695765
0.0238244515413
0.0238744280546
0.0239235121813
0.0239717170012
0.0240190555876
0.0240655409901
0.0241111862175
0.0241560042224
0.0242000078873
0.0242432100117
0.024285623301
0.0243272603568
0.024368133667
0.0244082555986
0.0244476383904
0.024486294147
0.0245242348335
0.024561472271
0.0245980181331
0.0246338839428
0.0246690810702
0.0247036207304
0.0247375139831
0.0247707851674
0.0248034956885
0.0248357037708
0.0248674224186
0.0248986636847
0.0249294394696
0.0249597615243
0.0249896414592
0.0250190906141
0.0250481202394
0.0250767414697
0.0251049651104
0.0251328019894
0.0251602625646
0.0251873571964
0.0252140962377
0.0252404895659
0.025266547086
0.025292278259
0.0253176927942
0.0253427998849
0.0253676085859
0.0253921277097
0.0254163657362
0.0254403312486
0.0254640322698
0.0254874766997
0.025510672174
0.0255336261474
0.0255563456206
0.025578837277
0.025601107413
0.0256231620675
0.0256450069513
0.0256666473009
0.025688087869
0.0257093330098
0.0257303865954
0.0257512520316
0.0257719321662
0.0257924293323
0.025812745189
0.0258328806753
0.02585283605
0.0258726107968
0.0258922036264
0.0259116124142
0.0259308341558
0.0259498649178
0.0259686997802
0.0259873327949
0.0260057569185
0.0260239639664
0.0260419445722
0.02605968812
0.0260771827075
0.0260944151004
0.0261113706867
0.0261280334384
0.0261443858767
0.0261604090552
0.0261760825359
0.0261913843903
0.0262062912035
0.0262207780939
0.0262348187508
0.02624838549
0.0262614493322
0.0262739801018
0.026285946555
0.0262973165359
0.0263080571664
0.0263181350681
0.0263275166266
0.026336168294
0.0263440569362
0.0263511502253
0.0263574170806
0.0263628281585
0.0263673563917
0.0263709775783
0.0263736710191
0.0263754152807
0.0263761979288
0.0263763530478
0.0263763671204
0.0263763801333
0.0263763921581
0.0263764032616
0.0263764135066
0.0263764229514
0.0263764316509
0.0263764396563
0.0263764470156
0.0263764537788
0.0166695219058
0.0167521775447
0.0168527838936
0.0169517060394
0.0170529046875
0.0171541045332
0.0172562779267
0.0173588284491
0.0174619321541
0.0175654593406
0.0176694004062
0.0177736990132
0.0178783141188
0.0179831984335
0.0180883056909
0.0181935885131
0.0182989991985
0.0184044896566
0.0185100115663
0.0186155164869
0.0187209559916
0.0188262817636
0.0189314457224
0.0190364001444
0.0191410977678
0.0192454919013
0.019349536534
0.0194531864401
0.0195563972702
0.0196591256486
0.0197613292643
0.0198629669539
0.0199639987744
0.0200643860798
0.0201640915842
0.0202630794182
0.0203613151835
0.0204587659994
0.0205554005409
0.0206511890672
0.0207461034522
0.020840117204
0.0209332054709
0.0210253450536
0.0211165144024
0.0212066936105
0.0212958644067
0.0213840101339
0.0214711157297
0.0215571677033
0.0216421541014
0.021726064473
0.0218088898348
0.0218906226272
0.0219712566713
0.0220507871239
0.0221292104274
0.0222065242606
0.0222827274839
0.0223578200907
0.0224318031516
0.0225046787589
0.0225764499761
0.0226471207804
0.0227166960085
0.0227851813061
0.0228525830731
0.0229189084106
0.0229841650728
0.0230483614167
0.0231115063528
0.0231736092992
0.0232346801371
0.0232947291667
0.0233537670657
0.0234118048495
0.0234688538328
0.0235249255937
0.023580031939
0.0236341848716
0.0236873965602
0.0237396793103
0.0237910455361
0.0238415077362
0.0238910784703
0.0239397703357
0.0239875959484
0.024034567923
0.0240806988566
0.0241260013123
0.0241704878042
0.0242141707851
0.0242570626341
0.0242991756457
0.0243405220208
0.0243811138574
0.0244209631435
0.0244600817497
0.0244984814241
0.0245361737869
0.0245731703261
0.024609482394
0.0246451212041
0.0246800978288
0.0247144231985
0.0247481196726
0.0247812479482
0.0248138701939
0.0248459994096
0.0248776476023
0.0249088266659
0.0249395483401
0.0249698241204
0.0249996654447
0.0250290834798
0.0250580893758
0.0250866941027
0.0251149082404
0.0251427424734
0.0251702071381
0.025197312535
0.0252240686666
0.0252504855516
0.0252765726425
0.0253023395113
0.0253277956944
0.025352950304
0.0253778120406
0.0254023895608
0.02542669133
0.0254507255953
0.025474500267
0.0254980229194
0.0255213009685
0.0255443416122
0.025567151806
0.0255897380335
0.0256121062648
0.0256342621834
0.0256562111069
0.025677957934
0.0256995070661
0.0257208624241
0.0257420274035
0.0257630048464
0.0257837969822
0.0258044054716
0.025824831293
0.0258450747052
0.0258651352307
0.0258850115723
0.0259047015797
0.0259242022062
0.0259435094594
0.0259626183479
0.0259815228314
0.0260002157634
0.0260186888401
0.026036932551
0.0260549361235
0.0260726874762
0.0260901731729
0.0261073783788
0.0261242868205
0.0261408807546
0.0261571409427
0.0261730466354
0.026188575567
0.0262037039621
0.0262184065566
0.0262326566353
0.026246426089
0.0262596854927
0.0262724042086
0.0262845505148
0.0262960917653
0.0263069945819
0.0263172250822
0.0263267491466
0.0263355327265
0.0263435421974
0.0263507447576
0.026357108876
0.0263626047893
0.0263672050497
0.0263708851218
0.0263736240295
0.0263753973428
0.0263761908568
0.0263763461438
0.0263763605541
0.026376373885
0.0263763862093
0.0263763975952
0.0263764081062
0.026376417802
0.0263764267383
0.0263764349671
0.0263764425374
0.0263764494998
0.0166800977461
0.0167607025135
0.0168590665778
0.0169557428271
0.0170547842544
0.0171538738178
0.0172539936101
0.0173545449464
0.0174557039159
0.0175573411023
0.0176594462827
0.0177619631187
0.0178648502792
0.0179680603198
0.0180715467768
0.0181752620941
0.018279158383
0.0183831873638
0.0184873005093
0.0185914491631
0.018695584656
0.0187996584179
0.0189036220844
0.0190074276219
0.0191110274379
0.0192143744754
0.0193174223283
0.0194201253386
0.0195224386935
0.0196243185196
0.0197257219684
0.0198266072982
0.0199269339589
0.0200266626527
0.0201257554043
0.0202241756267
0.0203218881631
0.0204188593404
0.0205150570078
0.0206104505675
0.0207050110022
0.0207987108999
0.020891524465
0.0209834275263
0.0210743975406
0.0211644135878
0.021253456363
0.0213415081621
0.0214285528601
0.0215145758898
0.0215995642146
0.0216835062948
0.0217663920514
0.0218482128298
0.0219289613559
0.0220086316916
0.0220872191906
0.0221647204479
0.0222411332522
0.0223164565331
0.0223906903097
0.022463835638
0.0225358945582
0.0226068700427
0.0226767659428
0.0227455869356
0.0228133384738
0.0228800267339
0.0229456585668
0.0230102414487
0.0230737834335
0.0231362931085
0.023197779547
0.023258252267
0.0233177211902
0.0233761966002
0.0234336891066
0.0234902096083
0.0235457692585
0.0236003794321
0.023654051695
0.0237067977748
0.0237586295337
0.0238095589429
0.0238595980577
0.0239087589964
0.0239570539183
0.0240044950047
0.0240510944421
0.0240968644039
0.0241418170368
0.0241859644463
0.0242293186846
0.0242718917393
0.0243136955223
0.0243547418617
0.0243950424931
0.024434609052
0.0244734530676
0.0245115859575
0.0245490190219
0.0245857634398
0.0246218302661
0.0246572304273
0.024691974721
0.0247260834732
0.0247596166307
0.0247926403653
0.0248251676374
0.0248572104574
0.0248887806448
0.0249198898881
0.0249505497696
0.0249807716172
0.0250105666431
0.0250399458626
0.0250689203069
0.0250975007801
0.0251256978413
0.0251535218157
0.0251809830228
0.0252080915526
0.0252348574018
0.0252612903174
0.0252873996249
0.0253131945819
0.0253386846647
0.0253638789963
0.0253887861719
0.0254134146624
0.0254377726987
0.0254618683533
0.0254857093821
0.0255093032138
0.025532656938
0.0255557773879
0.0255786711499
0.0256013443865
0.0256238028629
0.0256460519441
0.0256680965637
0.0256899411803
0.0257115897583
0.0257330457336
0.025754311981
0.0257753907767
0.0257962837782
0.0258169919672
0.0258375156045
0.0258578541902
0.0258780064076
0.0258979700775
0.0259177421107
0.0259373184577
0.0259566940565
0.0259758627794
0.0259948173784
0.0260135494313
0.0260320492898
0.0260503060267
0.0260683073853
0.0260860397337
0.0261034880197
0.0261206357315
0.026137464865
0.0261539558988
0.0261700877779
0.0261858379074
0.0262011821604
0.026216094899
0.0262305490127
0.0262445159768
0.0262579659319
0.0262708677882
0.0262831893574
0.0262948975149
0.0263059583951
0.0263163376237
0.0263260005883
0.0263349127526
0.0263430400145
0.0263503491109
0.0263568080726
0.0263623867286
0.0263670572615
0.0263707948129
0.0263735781387
0.0263753798176
0.0263761838871
0.0263763392826
0.0263763540253
0.0263763676693
0.0263763802887
0.0263763919527
0.026376402726
0.0263764126692
0.0263764218389
0.0263764302881
0.0263764380665
0.0263764452257
0.0166930311073
0.016771594277
0.0168676964653
0.0169621122548
0.0170589804024
0.0171559458125
0.0172539983639
0.017352538089
0.017451740566
0.0175514767033
0.0176517354821
0.0177524604847
0.0178536099836
0.0179551363067
0.0180569927005
0.0181591313486
0.0182615041032
0.0183640624171
0.0184667574986
0.0185695404108
0.0186723622021
0.0187751739969
0.0188779271105
0.0189805731714
0.0190830642144
0.0191853527908
0.019287392072
0.0193891359518
0.0194905391391
0.019591557247
0.01969214688
0.0197922657217
0.0198918726069
0.0199909275903
0.0200893920181
0.0201872285828
0.0202844013794
0.02038087595
0.0204766193294
0.0205716000769
0.0206657883045
0.0207591556991
0.0208516755367
0.0209433226959
0.0210340736608
0.0211239065173
0.0212128009494
0.0213007382257
0.0213877011809
0.0214736741985
0.0215586431805
0.021642595519
0.0217255200638
0.0218074070864
0.0218882482382
0.0219680365099
0.022046766188
0.022124432806
0.0222010330969
0.0222765649472
0.0223510273444
0.0224244203248
0.0224967449246
0.022568003128
0.0226381978146
0.0227073327096
0.0227754123323
0.0228424419477
0.0229084275166
0.0229733756465
0.0230372935473
0.0231001889837
0.023162070232
0.0232229460376
0.0232828255728
0.023341718399
0.0233996344281
0.023456583885
0.0235125772749
0.0235676253501
0.0236217390787
0.023674929615
0.0237272082728
0.0237785864983
0.0238290758462
0.0238786879567
0.0239274345349
0.0239753273308
0.0240223781201
0.0240685986881
0.0241140008142
0.024158596257
0.0242023967415
0.024245413947
0.0242876594969
0.0243291449483
0.0243698817829
0.0244098813998
0.0244491551079
0.02448771412
0.024525569547
0.0245627323931
0.0245992135518
0.0246350238019
0.0246701738057
0.0247046818064
0.024738606932
0.0247720194356
0.0248049322617
0.0248373573215
0.024869306491
0.0249007912538
0.0249318234176
0.0249624141341
0.0249925746595
0.0250223159513
0.025051648991
0.0250805844475
0.0251091331308
0.025137305538
0.0251651118728
0.0251925622346
0.0252196665976
0.0252464347952
0.0252728765007
0.0252990010556
0.0253248174485
0.0253503348934
0.0253755621942
0.0254005079075
0.0254251803529
0.0254495876207
0.0254737375206
0.0254976375588
0.0255212949315
0.0255447165403
0.0255679089776
0.0255908784624
0.02561363082
0.0256361714659
0.025658505378
0.025680637062
0.0257025705242
0.0257243092384
0.0257458561123
0.0257672134512
0.0257883829242
0.0258093655178
0.0258301614905
0.0258507703283
0.0258711906939
0.0258914203778
0.0259114562487
0.0259312942016
0.0259509291056
0.0259703547485
0.0259895637829
0.0260085476709
0.0260272966307
0.0260457995834
0.0260640441021
0.0260820163636
0.0260997011038
0.0261170815786
0.0261341395302
0.0261508551607
0.0261672071165
0.026183172482
0.0261987267872
0.0262138440294
0.0262284967129
0.0262426559074
0.0262562913294
0.0262693714487
0.0262818636221
0.0262937342583
0.026304949017
0.0263154730443
0.0263252712484
0.026334308618
0.0263425505861
0.0263499634414
0.0263565147889
0.026362174062
0.026366913085
0.0263707066869
0.0263735333647
0.0263753627119
0.0263761770226
0.0263763324671
0.0263763475368
0.0263763614889
0.0263763743987
0.0263763863365
0.026376397368
0.0263764075549
0.0263764169547
0.0263764256212
0.0263764336048
0.026376440958
0.0167083308113
0.016784860497
0.0168786802658
0.016970820017
0.0170654978484
0.0171603242257
0.0172562949751
0.0173528097708
0.0174500431265
0.0175478663356
0.0176462674106
0.0177451897723
0.0178445911935
0.0179444236726
0.0180446400985
0.0181451923178
0.0182460318443
0.0183471098071
0.0184483770797
0.0185497843971
0.0186512824622
0.0187528220454
0.0188543541018
0.018955829872
0.0190572009961
0.0191584196075
0.0192594384321
0.0193602108924
0.0194606912007
0.0195608344426
0.0196605966686
0.0197599349751
0.0198588075781
0.0199571738853
0.020054994562
0.0201522315922
0.020248848327
0.0203448095368
0.0204400814526
0.0205346318013
0.0206284298335
0.0207214463502
0.0208136537214
0.0209050258925
0.0209955383922
0.021085168335
0.0211738944134
0.0212616968888
0.0213485575793
0.0214344598367
0.0215193885252
0.0216033299919
0.0216862720352
0.0217682038744
0.0218491161095
0.0219290006795
0.0220078508232
0.0220856610325
0.022162427007
0.0222381456075
0.0223128148073
0.0223864336423
0.0224590021607
0.0225305213742
0.0226009932074
0.022670420448
0.0227388066971
0.0228061563213
0.0228724744027
0.0229377666939
0.0230020395701
0.0230652999853
0.0231275554284
0.0231888138806
0.0232490837752
0.0233083739576
0.0233666936484
0.0234240524066
0.0234804600955
0.0235359268496
0.0235904630441
0.0236440792646
0.0236967862795
0.0237485950137
0.023799516524
0.0238495619762
0.0238987426227
0.0239470697828
0.0239945548235
0.0240412091432
0.024087044154
0.0241320712679
0.0241763018829
0.0242197473706
0.0242624190641
0.024304328249
0.0243454861526
0.0243859039363
0.0244255926875
0.0244645634127
0.0245028270316
0.0245403943719
0.0245772761638
0.0246134830368
0.0246490255169
0.024683919722
0.0247182239301
0.0247520124511
0.0247852982471
0.0248180932524
0.0248504092349
0.0248822576146
0.0249136498553
0.0249445974978
0.0249751118251
0.0250052037246
0.0250348841718
0.0250641639609
0.0250930536163
0.0251215636939
0.0251497045092
0.0251774862166
0.0252049188188
0.0252320121602
0.0252587759018
0.0252852194677
0.0253113520595
0.0253371827856
0.025362720509
0.0253879738529
0.0254129512006
0.0254376606887
0.0254621101819
0.025486307254
0.0255102591765
0.0255339729113
0.025557455091
0.0255807119845
0.0256037494707
0.0256265730136
0.0256491876361
0.025671597888
0.025693807816
0.0257158209297
0.0257376401675
0.025759267859
0.0257807056871
0.0258019546444
0.0258230149871
0.0258438861895
0.0258645668943
0.0258850548617
0.0259053469188
0.0259254389072
0.025945325628
0.0259650007875
0.0259844569414
0.0260036854391
0.026022676369
0.0260414185043
0.0260598992518
0.0260781046027
0.0260960190875
0.0261136257351
0.0261309060399
0.0261478399351
0.026164405776
0.0261805803348
0.026196338807
0.0262116548348
0.0262265005463
0.0262408466163
0.0262546623486
0.0262679157836
0.0262805738351
0.0262926024577
0.0263039668486
0.0263146316876
0.0263245614165
0.0263337205621
0.0263420741062
0.0263495879016
0.0263562291407
0.0263619668733
0.0263667725768
0.0263706207783
0.026373489725
0.0263753460325
0.0263761702661
0.0263763257
0.0263763410911
0.0263763553462
0.0263763685415
0.0263763807487
0.0263763920344
0.0263764024612
0.0263764120875
0.0263764209681
0.026376429154
0.0263764366985
0.016726006394
0.0168005094129
0.0168920252053
0.0169818722841
0.0170743417916
0.0171670133154
0.0172608867968
0.0173553624307
0.0174506131699
0.0175465107311
0.0176430419969
0.0177401501531
0.0178377923774
0.0179359202471
0.0180344861966
0.0181334416649
0.018232737756
0.018332325199
0.0184321544808
0.0185321759423
0.0186323398922
0.0187325967054
0.0188328969257
0.0189331913791
0.0190334312685
0.0191335682717
0.0192335546455
0.0193333433221
0.0194328879967
0.0195321432127
0.0196310644568
0.0197296082313
0.0198277321282
0.0199253949044
0.0200225565449
0.0201191783213
0.0202152228506
0.020310654136
0.0204054376167
0.0204995401982
0.0205929302847
0.0206855778082
0.0207774542408
0.0208685326118
0.0209587875145
0.0210481951079
0.021136733114
0.0212243808098
0.0213111190129
0.0213969300647
0.021481797812
0.0215657075777
0.0216486461327
0.0217306016629
0.0218115637347
0.0218915232577
0.0219704724423
0.0220484047584
0.0221253148917
0.0222011986959
0.0222760531481
0.0223498762995
0.0224226672275
0.0224944259879
0.0225651535661
0.0226348518269
0.0227035234662
0.0227711719651
0.0228378015412
0.0229034171029
0.0229680242027
0.0230316289941
0.0230942381884
0.023155859012
0.023216499167
0.0232761667915
0.023334870422
0.0233926189579
0.0234494216267
0.0235052879513
0.0235602277181
0.0236142509487
0.0236673678707
0.023719588891
0.0237709245718
0.0238213856061
0.0238709827961
0.0239197270329
0.0239676292765
0.0240147005386
0.0240609518654
0.0241063943231
0.0241510389823
0.0241948969064
0.0242379791393
0.0242802966937
0.024321860542
0.0243626816068
0.0244027707526
0.0244421387787
0.0244807964123
0.0245187543025
0.0245560230152
0.024592613028
0.0246285347283
0.0246638020669
0.0246984724251
0.0247326242257
0.0247662704367
0.0247994228763
0.0248320931865
0.0248642931562
0.0248960339529
0.0249273270116
0.02495818356
0.0249886146186
0.025018631113
0.0250482438244
0.0250774633658
0.0251063002479
0.0251347648167
0.0251628672598
0.025190617608
0.0252180257283
0.0252451013068
0.0252718538296
0.0252982925868
0.0253244266985
0.0253502650705
0.0253758163799
0.0254010890653
0.0254260913149
0.0254508310487
0.0254753159011
0.0254995532058
0.0255235499808
0.0255473129077
0.0255708483043
0.0255941620987
0.0256172598025
0.0256401464827
0.0256628267316
0.0256853046339
0.0257075837331
0.0257296669965
0.0257515567758
0.0257732547683
0.0257947619729
0.0258160786448
0.0258372042476
0.0258581374041
0.0258788758451
0.0258994163575
0.02591975473
0.0259398856985
0.0259598028899
0.0259794987657
0.0259989645657
0.0260181902519
0.0260371644544
0.0260558744182
0.0260743059536
0.0260924433908
0.0261102695387
0.0261277656507
0.0261449113981
0.0261616848533
0.026178062484
0.0261940191605
0.0262095281792
0.0262245613025
0.026239088821
0.0262530796363
0.0262665013716
0.0262793205097
0.0262915025634
0.0263030122809
0.0263138138885
0.0263238713748
0.0263331488187
0.0263416107635
0.0263492226402
0.0263559512408
0.026361765244
0.0263666357922
0.0263705371207
0.0263734472366
0.0263753297861
0.0263761636203
0.0263763189841
0.0263763346909
0.0263763492436
0.0263763627196
0.0263763751916
0.0263763867273
0.0263763973901
0.0263764072394
0.0263764163307
0.0263764247159
0.0263764324488
0.0167460683258
0.0168185501817
0.0169077393082
0.016995275948
0.0170855180951
0.0171760179214
0.0172677777523
0.0173601991188
0.0174534528965
0.0175474112693
0.0176420598461
0.0177373414865
0.0178332126728
0.0179296244955
0.0180265288448
0.0181238766638
0.0182216185796
0.0183197048562
0.0184180855226
0.0185167104717
0.0186155295697
0.0187144927399
0.0188135500763
0.0189126519434
0.0190117490739
0.0191107926621
0.0192097344694
0.0193085269128
0.0194071231449
0.0195054771554
0.0196035438505
0.019701279127