/*--------------------------------*- C++ -*----------------------------------*\
| =========                 |                                                 |
| \\      /  F ield         | OpenFOAM: The Open Source CFD Toolbox           |
|  \\    /   O peration     | Version:  2412                                  |
|   \\  /    A nd           | Website:  www.openfoam.com                      |
|    \\/     M anipulation  |                                                 |
\*---------------------------------------------------------------------------*/
FoamFile
{
    version     2.0;
    format      ascii;
    arch        "LSB;label=32;scalar=64";
    class       volVectorField;
    location    "2";
    object      U;
}
// * * * * * * * * * * * * * * * * * * * * * * * * * * * * * * * * * * * * * //

dimensions      [0 1 -1 0 0 0 0];

internalField   nonuniform List<vector> 
64000
(
(0.00436574456041 -0.216277016945 -3.34016267982e-25)
(0.00412361771328 -0.213733840604 -1.45237441615e-34)
(0.00428204193684 -0.20987689651 6.30736770181e-25)
(0.00403729344533 -0.206194268133 5.18091984617e-25)
(0.0041134052188 -0.202414135312 1.18646885271e-24)
(0.00396721249453 -0.198695008645 3.92714257025e-25)
(0.00395439828152 -0.194963029238 0)
(0.00386564104627 -0.191261848216 0)
(0.00381415777002 -0.1875755868 -5.22752166102e-25)
(0.0037436219629 -0.18391281869 -7.9280110398e-36)
(0.00368036943161 -0.180271899695 4.89353377267e-25)
(0.00361315884579 -0.176655202404 0)
(0.00354671508084 -0.173063595229 0)
(0.00347939741182 -0.169498459675 0)
(0.00341193700151 -0.165960985748 -2.65246404514e-25)
(0.00334422692404 -0.162452400963 -4.11507606133e-25)
(0.0032764302241 -0.158973894684 -3.96942864026e-25)
(0.00320861893259 -0.155526635909 -3.82718571586e-25)
(0.00314088731837 -0.152111766166 0)
(0.00307331675386 -0.148730397798 0)
(0.00300598577514 -0.145383610426 0)
(0.00293896889305 -0.142072449872 0)
(0.00287233539643 -0.138797925837 0)
(0.00280615051192 -0.135561009231 2.77149695788e-25)
(0.00274047537586 -0.13236263062 0)
(0.00267536651607 -0.129203678865 -5.4825465146e-25)
(0.00261087662642 -0.126084999436 -5.40085250491e-25)
(0.00254705428264 -0.123007392788 -2.59206398134e-25)
(0.00248394414826 -0.119971613272 0)
(0.00242158742188 -0.116978368269 0)
(0.00236002152297 -0.114028317227 0)
(0.00229928023473 -0.11112207075 -4.38204144512e-25)
(0.00223939420736 -0.10826019021 -1.26833446889e-34)
(0.00218039090111 -0.105443187523 5.76611554875e-25)
(0.00212229459774 -0.10267152464 -2.35929019107e-35)
(0.00206512686631 -0.0999456134546 -3.67955730118e-25)
(0.00200890641269 -0.097265816127 4.25162516504e-25)
(0.00195364918332 -0.0946324451497 0)
(0.00189936905563 -0.0920457635563 0)
(0.00184607747109 -0.0895059855802 0)
(0.00179378336955 -0.0870132773679 3.8742317216e-25)
(0.00174249395201 -0.084567757452 2.79794609468e-25)
(0.00169221458676 -0.0821694975358 2.66956615125e-25)
(0.00164294869119 -0.0798185237394 0)
(0.00159469801336 -0.077514817494 0)
(0.0015474627521 -0.0752583164647 -2.31369278997e-25)
(0.00150124185465 -0.0730489159742 3.90178375339e-35)
(0.00145603288091 -0.0708864702061 5.35078561617e-25)
(0.00141183186907 -0.0687707934696 0)
(0.00136863392797 -0.0667016617527 1.90260592752e-25)
(0.00132643324679 -0.0646788139315 3.62057187086e-25)
(0.00128522282117 -0.0627019532231 3.44377505479e-25)
(0.00124499483547 -0.0607707490474 8.9570458363e-25)
(0.00120574067703 -0.0588848383565 1.55634589337e-25)
(0.00116745081838 -0.05704382696 1.47895171728e-25)
(0.00113011521388 -0.0552472913748 1.40497767232e-25)
(0.0010937232155 -0.0534947804187 -2.66860559389e-25)
(0.00105826332458 -0.0517858166281 -7.46151161915e-25)
(0.00102372361519 -0.0501198979573 0)
(0.000990091882757 -0.0484964993231 -2.28179068986e-25)
(0.000957355309938 -0.0469150740597 -1.99557077567e-36)
(0.000925500576066 -0.0453750556484 -4.37377981546e-25)
(0.000894514135185 -0.0438758592798 1.21453334754e-35)
(0.000864382141101 -0.0424168831321 1.8445333474e-25)
(0.000835090411996 -0.0409975098911 -1.74781527374e-25)
(0.000806624532298 -0.0396171083945 5.3489664978e-36)
(0.000778969843033 -0.0382750349756 -5.92021802911e-25)
(0.000752111466582 -0.0369706347234 -1.4847209416e-25)
(0.00072603442936 -0.0357032429091 -1.40542385732e-25)
(0.000700723657135 -0.0344721863582 0)
(0.000676163902442 -0.0332767846605 -1.25837627885e-25)
(0.000652339808759 -0.0321163513858 6.36771504131e-25)
(0.000629236019747 -0.0309901953064 9.56880461953e-36)
(0.000606837176502 -0.0298976215249 -1.06422226475e-25)
(0.000585127873276 -0.0288379325516 -4.75406502961e-25)
(0.000564092686424 -0.0278104293821 9.50620921887e-26)
(0.000543716242577 -0.0268144125164 0)
(0.000523983245297 -0.0258491828989 3.5021839735e-25)
(0.000504878464545 -0.0249140428238 -5.02197749851e-25)
(0.000486386738567 -0.0240082968201 1.51292648996e-25)
(0.000468492997481 -0.0231312524909 0)
(0.000451182290858 -0.0222822212888 -1.3478497547e-25)
(0.000434439809859 -0.0214605192363 -1.27178998054e-25)
(0.000418250897442 -0.0206654676092 -8.41843328058e-25)
(0.000402601047376 -0.0198963935909 -6.98942269427e-25)
(0.000387475912119 -0.0191526308863 1.06708083787e-25)
(0.000372861325224 -0.018433520286 -1.00603833525e-25)
(0.000358743315944 -0.0177384101808 -4.40453517821e-35)
(0.000345108112035 -0.0170666570354 8.93694442372e-26)
(0.000331942146569 -0.0164176258315 0)
(0.000319232066506 -0.0157906904808 -6.51606060699e-25)
(0.000306964734226 -0.0151852342018 0)
(0.000295127234781 -0.0146006498466 0)
(0.000283706891296 -0.0140363401858 -5.82102627335e-25)
(0.000272691268335 -0.0134917181745 0)
(0.000262068165988 -0.0129662071936 -1.17377298338e-25)
(0.00025182562388 -0.0124592412562 6.26685960703e-35)
(0.00024195192734 -0.011970265184 1.03913200966e-25)
(0.000232435609202 -0.0114987347508 0)
(0.00022326546027 -0.0110441167838 0)
(0.000214430525316 -0.0106058892626 9.75383772042e-25)
(0.00020592009139 -0.010183541415 8.12645565893e-26)
(0.000197723721846 -0.00977657373372 0)
(0.000189830763456 -0.00938449806197 0)
(0.000182234173575 -0.00900683745157 0)
(0.000174915561432 -0.00864312598294 0)
(0.000167829590088 -0.00829291002671 -7.00591834031e-25)
(0.000160953975362 -0.00795574736876 -3.48137208415e-26)
(0.000154289299887 -0.00763120764183 6.14043843883e-25)
(0.000147831398239 -0.00731886662457 0)
(0.000141579938178 -0.00701831784651 3.73509737848e-26)
(0.000135529210667 -0.00672915878461 1.05692878351e-24)
(0.000129675148483 -0.00645100315379 -1.27852667005e-26)
(0.000124015716156 -0.00618346989186 7.65904797338e-26)
(0.000118546577301 -0.00592620254586 7.18838635395e-26)
(0.000113262486619 -0.00567882874334 0)
(0.000108166032575 -0.00544101097789 -1.16557894222e-25)
(0.000103242731443 -0.00521241474301 -1.00365261415e-24)
(9.84905098664e-05 -0.00499270614159 8.03742627389e-25)
(9.39125220488e-05 -0.00478157280018 -8.70287522878e-25)
(8.95019361976e-05 -0.0045787148041 -1.96932041948e-25)
(8.52552938297e-05 -0.00438381230741 9.41863802756e-25)
(8.11574683479e-05 -0.0041966045007 -6.78501683644e-25)
(7.7211281344e-05 -0.00401678437253 6.91411819892e-25)
(7.34243865249e-05 -0.0038441048164 1.27946495349e-25)
(6.9787514347e-05 -0.00367828917347 1.58922748801e-25)
(6.6284330086e-05 -0.00351907814657 0)
(6.29157677351e-05 -0.003366240381 -2.28687196198e-25)
(5.96868847593e-05 -0.00321952895081 6.15550273855e-25)
(5.65870132667e-05 -0.00307872887171 5.32852142347e-25)
(5.36077898486e-05 -0.00294359672935 0)
(5.07533846656e-05 -0.00281393274083 2.44370506324e-25)
(4.80236843219e-05 -0.00268951941481 6.99588212059e-25)
(4.54065258152e-05 -0.00257016972426 -8.92704677822e-25)
(4.29006904855e-05 -0.00245566969582 0)
(4.05072924769e-05 -0.00234584273822 4.08796303289e-25)
(3.82148206409e-05 -0.00224051048467 -8.15506940717e-25)
(3.60171024473e-05 -0.00213949020666 1.29188297672e-35)
(3.39140477175e-05 -0.00204262879628 -3.25676574528e-25)
(3.19056284772e-05 -0.00194976251645 0)
(2.99914340206e-05 -0.00186072939836 0)
(2.81675194524e-05 -0.00177538181894 9.05415784157e-25)
(2.64316728144e-05 -0.00169356703618 -6.1655783474e-25)
(2.47791781595e-05 -0.00161515154144 -6.11720915917e-25)
(2.32057555428e-05 -0.00153999302708 4.97463137565e-25)
(2.17090305123e-05 -0.00146796800083 -5.15465784577e-25)
(2.02843269671e-05 -0.00139894824958 5.29370342744e-25)
(1.89288394319e-05 -0.00133281252939 5.03539011027e-25)
(1.76416396273e-05 -0.00126945057449 0)
(1.64201455608e-05 -0.00120874811604 -4.25611128615e-25)
(1.52598456177e-05 -0.00115059952226 0)
(1.41579680042e-05 -0.00109490182133 0)
(1.31142428201e-05 -0.00104155784278 -3.66902475837e-25)
(1.21295908977e-05 -0.00099046686537 6.74503769608e-25)
(1.12011027006e-05 -0.000941539881721 -1.02017351468e-24)
(1.0325208906e-05 -0.000894685413265 3.15777317407e-25)
(9.50014773019e-06 -0.000849819489876 2.06091172143e-26)
(8.72329342272e-06 -0.000806859706949 8.56152977271e-25)
(7.99341902016e-06 -0.000765727114238 -2.89208655392e-25)
(7.30905941328e-06 -0.000726347794432 0)
(6.6676871217e-06 -0.000688647855862 0)
(6.06667503424e-06 -0.00065255732322 0)
(5.50328168614e-06 -0.000618010476743 0)
(4.97472462426e-06 -0.000584943726686 2.73575806523e-26)
(4.47930567037e-06 -0.000553295416441 2.58004426925e-26)
(4.01801253798e-06 -0.000523007274907 -3.71737990236e-25)
(3.59112056566e-06 -0.000494020817728 -3.74293085422e-25)
(3.1956953573e-06 -0.000466282793919 6.20835405717e-25)
(2.83036128171e-06 -0.000439740119224 -2.04737127459e-26)
(2.49435865737e-06 -0.000414342284563 -5.90690914159e-25)
(2.18578166281e-06 -0.000390042164065 2.59530314423e-25)
(1.90337143002e-06 -0.000366792415091 -5.40674008766e-25)
(1.64575839379e-06 -0.000344549246024 -1.64223993376e-26)
(1.41253728244e-06 -0.000323270003238 -2.46114270129e-25)
(1.2029315067e-06 -0.000302913174098 1.47356155411e-26)
(1.01521515663e-06 -0.000283439724796 4.18857594166e-26)
(8.47965769751e-07 -0.000264812810513 2.64624197858e-26)
(6.9998232422e-07 -0.000246995417355 0)
(5.69925389149e-07 -0.000229953519293 -2.37782182676e-26)
(4.56573420536e-07 -0.000213653961425 -3.2828133173e-25)
(3.59135786054e-07 -0.000198065339052 2.13831722936e-26)
(2.76960355691e-07 -0.000183156890445 -2.0137320126e-25)
(2.088070954e-07 -0.000168899325585 -2.03371202592e-25)
(1.52693179972e-07 -0.000155264835168 -2.21709303628e-25)
(1.07413227293e-07 -0.000142227086963 -3.89483481068e-25)
(7.19163879519e-08 -0.000129759901635 3.27627398766e-25)
(4.50325427298e-08 -0.00011783915235 -3.74809251734e-26)
(2.59925325363e-08 -0.000106440741432 -3.81266152535e-26)
(1.45038441535e-08 -9.55425763247e-05 -3.37127820739e-36)
(5.00829945967e-09 -8.51230022715e-05 1.34538620299e-26)
(-9.5301121486e-09 -7.51612618033e-05 0)
(-3.00714406995e-08 -6.5637517577e-05 0)
(-5.56487857419e-08 -5.6532771361e-05 3.23215652332e-25)
(-8.60729337266e-08 -4.78288435303e-05 0)
(-1.20971819323e-07 -3.9508326652e-05 -2.25780200464e-25)
(-1.596805642e-07 -3.15545516995e-05 0)
(-2.01889208511e-07 -2.39515629116e-05 -1.36736924232e-25)
(-2.47533398904e-07 -1.66840874714e-05 0)
(-2.95848271176e-07 -9.7375049943e-06 0)
(-3.44232634738e-07 -3.09353973453e-06 1.8392464957e-26)
(0.0129679791663 -0.215937579335 2.00693529169e-25)
(0.012546202383 -0.213451050201 1.2804799605e-24)
(0.0125840397516 -0.209586742743 1.24544690226e-24)
(0.0121730161627 -0.205912042413 -9.96947025144e-26)
(0.0121081010775 -0.202129797289 1.17059506891e-24)
(0.0118089920088 -0.198414613549 9.41027156869e-25)
(0.0116496814224 -0.194683683434 3.72221901323e-25)
(0.0114127611347 -0.190985540593 -1.06456658894e-24)
(0.0112149645516 -0.187301771351 -1.32719985389e-34)
(0.0109986547221 -0.18364210523 -1.02084592741e-34)
(0.0107907110705 -0.180004349671 3.52081000037e-25)
(0.0105797801664 -0.176391080478 9.31221945425e-25)
(0.0103706830713 -0.172803058118 0)
(0.0101618156124 -0.169241679504 0)
(0.0099539591647 -0.165708105799 -1.17532629436e-24)
(0.0097470528619 -0.162203552022 -1.6173434212e-24)
(0.00954130595884 -0.158729191033 -1.88043716963e-24)
(0.0093368355364 -0.155286177524 -1.50299261236e-24)
(0.00913377908997 -0.151875638875 1.44788325752e-24)
(0.00893226061157 -0.148498674453 -5.51058178837e-34)
(0.00873239965834 -0.145156351312 -1.94153687075e-24)
(0.00853431021055 -0.141849703384 0)
(0.00833809996146 -0.138579729366 0)
(0.00814387059391 -0.135347389659 2.89861611069e-25)
(0.00795171804831 -0.132153605056 0)
(0.00776173220231 -0.128999255354 -1.37943678904e-24)
(0.00757399726283 -0.125885177417 -5.19997998369e-25)
(0.00738859150137 -0.122812163679 4.8762314837e-25)
(0.0072055875211 -0.119780961074 9.71973404081e-25)
(0.00702505260207 -0.116792270127 -4.26684910439e-25)
(0.00684704820442 -0.113846743977 -8.92746869684e-25)
(0.00667163030611 -0.110944987444 -8.55037924058e-25)
(0.00649884992313 -0.10808755657 -1.63714791843e-24)
(0.00632875288101 -0.105274958436 -1.01913342772e-24)
(0.00616137991377 -0.102507650695 -9.07565362388e-25)
(0.00599676697168 -0.09978604129 0)
(0.00583494523922 -0.0971104887555 6.23253370613e-25)
(0.00567594146016 -0.0944813024547 -8.47754015816e-25)
(0.00551977816095 -0.0918987427182 6.24763301746e-25)
(0.00536647340672 -0.089363021344 -5.96411241039e-25)
(0.00521604119153 -0.0868743023265 -1.68764486511e-25)
(0.00506849195512 -0.0844327024148 0)
(0.00492383228732 -0.0820382918408 0)
(0.00478206508271 -0.0796910954607 7.33172605497e-25)
(0.00464319001646 -0.0773910936707 -7.14829465854e-25)
(0.00450720353547 -0.0751382233255 0)
(0.00437409907003 -0.0729323791824 1.53144204685e-24)
(0.00424386711601 -0.0707734151132 1.14605591419e-24)
(0.00411649520834 -0.0686611451757 6.43877081573e-25)
(0.00399196853782 -0.0665953452025 0)
(0.00387026999447 -0.0645757542222 -1.2198720763e-24)
(0.0037513797414 -0.0626020757278 0)
(0.00363527578169 -0.0606739794001 5.83260359593e-25)
(0.00352193438809 -0.0587911026141 -1.12210604831e-24)
(0.00341132976295 -0.0569530517324 -1.6591290476e-24)
(0.00330343421123 -0.0551594038787 -1.19132819771e-34)
(0.0031982184748 -0.0534097086023 5.12012334336e-25)
(0.00309565163784 -0.0517034891946 4.95040707171e-25)
(0.00299570133994 -0.0500402443506 -4.60554004386e-25)
(0.00289833403248 -0.0484194498974 -4.36594761309e-25)
(0.00280351479702 -0.0468405601752 0)
(0.00271120744501 -0.0453030095753 -4.47033486843e-25)
(0.00262137493169 -0.0438062142255 -8.59516919471e-25)
(0.00253397935312 -0.0423495733874 0)
(0.00244898179792 -0.0409324708394 -6.65487934443e-25)
(0.00236634255212 -0.039554276469 -2.82439677587e-24)
(0.00228602132614 -0.0382143477093 -1.35952596266e-24)
(0.00220797725031 -0.0369120307909 5.6343660244e-25)
(0.00213216889978 -0.0356466621108 5.32724080681e-25)
(0.00205855442428 -0.0344175696339 1.37554943182e-24)
(0.00198709162185 -0.0332240741267 -4.75836274442e-25)
(0.00191773798131 -0.0320654903256 1.98714589618e-25)
(0.00185045078317 -0.0309411281504 1.66994096495e-24)
(0.00178518718496 -0.0298502938761 -4.02441914258e-25)
(0.00172190424037 -0.0287922912114 5.78325942302e-25)
(0.00166055894242 -0.0277664223293 7.67932769751e-25)
(0.00160110832668 -0.026771988882 0)
(0.00154350954723 -0.0258082929736 8.45956040776e-25)
(0.0014877198934 -0.024874638074 1.10347335797e-24)
(0.00143369681426 -0.0239703298805 -1.67599173338e-24)
(0.00138139797947 -0.0230946771434 2.66258890257e-25)
(0.00133078134862 -0.0222469924482 -8.31491938455e-35)
(0.00128180522274 -0.0214265929436 -1.99705076815e-24)
(0.00123442827057 -0.0206328010269 -2.55225378257e-24)
(0.00118860954353 -0.019864944994 -1.24240286427e-24)
(0.00114430850892 -0.0191223596501 -7.89071531452e-25)
(0.00110148510084 -0.0184043868722 -7.42576884338e-25)
(0.00106009976045 -0.0177103761205 -3.4932419004e-25)
(0.00102011345706 -0.0170396849109 -3.28577804615e-25)
(0.000981487700709 -0.0163916792625 -1.67226274383e-24)
(0.000944184555582 -0.0157657341171 -6.59495566531e-25)
(0.0009081666661 -0.0151612337079 0)
(0.000873397294109 -0.0145775718761 -1.21803261977e-24)
(0.000839840340024 -0.0140141523582 -5.8871228749e-25)
(0.000807460341029 -0.0134703890616 0)
(0.000776222473507 -0.0129457063082 2.12566673233e-25)
(0.000746092567638 -0.0124395390401 -1.89120598938e-24)
(0.000717037125989 -0.0119513329878 2.01143625192e-24)
(0.000689023345142 -0.0114805447983 0)
(0.000662019118188 -0.0110266421529 -1.86071569066e-24)
(0.000635993009208 -0.010589103889 1.05219780887e-24)
(0.000610914273969 -0.0101674200668 1.44926381993e-25)
(0.00058675286156 -0.00976109198166 -1.65336274442e-24)
(0.00056347904355 -0.00936963228819 0)
(0.000541067045661 -0.008992564762 0)
(0.000519480061283 -0.00862942468021 -1.46686540175e-24)
(0.000498655471435 -0.00827976092527 -7.06579336398e-25)
(0.000478553572454 -0.00794313307489 -1.54913187547e-24)
(0.000459157620359 -0.00761910778595 1.76782719396e-24)
(0.00044044719626 -0.00730726690803 0)
(0.000422404090223 -0.00700720302761 2.55603380617e-24)
(0.000405010953559 -0.00671851130335 -9.96614023627e-25)
(0.000388247215258 -0.00644080764579 0)
(0.000372093686171 -0.00617371010859 0)
(0.000356532146681 -0.00591686229392 -2.03115446661e-24)
(0.000341544178354 -0.00566989478953 -1.94829697858e-24)
(0.000327118412949 -0.00543247563676 0)
(0.000313230337173 -0.0052042462297 -8.97795423828e-25)
(0.000299863869765 -0.00498490933415 8.60715916121e-25)
(0.000287007905361 -0.00477412322718 6.4698794094e-25)
(0.000274639813405 -0.00457160453359 -3.26258343628e-25)
(0.000262744742042 -0.0043770252016 2.11788505626e-24)
(0.000251304837121 -0.00419012272244 -8.6808875031e-25)
(0.000240310404964 -0.00401061153716 5.62705858717e-25)
(0.000229753753367 -0.00383822551676 -1.23833791473e-25)
(0.000219609762317 -0.00367268859082 1.04242714e-24)
(0.000209865101951 -0.00351373584023 -1.07760447165e-25)
(0.000200509466474 -0.00336116318515 0)
(0.000191534179211 -0.00321470016529 4.65956692814e-25)
(0.000182915558595 -0.00307412973875 2.58713501155e-24)
(0.000174639897343 -0.00293922170991 0)
(0.000166704483271 -0.00280978207299 -7.5908629812e-26)
(0.00015909805146 -0.00268557962769 9.37669329296e-25)
(0.000151802833949 -0.00256642329332 -8.30724056047e-25)
(0.00014480749886 -0.00245211966007 1.83598356964e-24)
(0.000138108922615 -0.00234247929342 1.14548258614e-25)
(0.000131689288007 -0.00223731797988 -6.77089225185e-25)
(0.000125540954343 -0.00213646730241 2.62235552404e-35)
(0.000119655140867 -0.00203976396239 -2.88742857862e-34)
(0.000114015446166 -0.00194704932397 8.58440404189e-26)
(0.000108614596888 -0.00185816310785 -1.22328200141e-24)
(0.000103445858017 -0.00177295559134 -4.72176524459e-25)
(9.85051458559e-05 -0.00169127993279 7.32810273869e-25)
(9.37844609212e-05 -0.00161299143705 -1.06869179128e-24)
(8.92749437174e-05 -0.00153795785053 -6.07152003717e-26)
(8.4968458488e-05 -0.00146604770337 -5.64678466654e-26)
(8.08503463529e-05 -0.00139713394527 0)
(7.69123503061e-05 -0.00133110032672 4.69801581836e-25)
(7.31463605123e-05 -0.00126783456489 1.78952402722e-24)
(6.9543705689e-05 -0.0012072230748 0)
(6.61017275877e-05 -0.00114916307298 7.74885627468e-26)
(6.28174614815e-05 -0.00109355031155 7.22141305032e-26)
(5.96834845282e-05 -0.00104028655603 -3.67997190556e-25)
(5.66960189901e-05 -0.000989276176253 0)
(5.3849772016e-05 -0.000940421195727 -3.33053223511e-25)
(5.11384096178e-05 -0.000893637391007 3.16675605825e-25)
(4.85581071062e-05 -0.000848837428376 1.20327650522e-24)
(4.6101199201e-05 -0.000805938177557 1.38145777633e-24)
(4.37631537643e-05 -0.000764865072586 -3.60729832672e-25)
(4.15388838951e-05 -0.000725539617873 -1.07235450168e-24)
(3.94230415171e-05 -0.000687890926481 0)
(3.74096832183e-05 -0.000651846629766 8.91963495562e-25)
(3.54923153225e-05 -0.000617342551166 -3.3045422049e-26)
(3.36674918627e-05 -0.000584315517246 1.66500666888e-24)
(3.19315225213e-05 -0.000552704546609 1.54743738003e-24)
(3.02795608265e-05 -0.000522451745283 -3.99025071304e-25)
(2.87084208441e-05 -0.00049349885747 -1.71210223581e-24)
(2.72146954526e-05 -0.000465792053997 4.50009872078e-26)
(2.57947920669e-05 -0.00043927821579 4.15583740148e-26)
(2.44466328076e-05 -0.000413907428742 3.84853629439e-26)
(2.31675127018e-05 -0.000389632737022 2.78547341335e-25)
(2.19556432689e-05 -0.000366407225939 1.04782172624e-24)
(2.08087794843e-05 -0.000344186227848 0)
(1.97232143948e-05 -0.00032292767314 -2.31151890858e-25)
(1.86964168681e-05 -0.000302590185114 0)
(1.7726938179e-05 -0.000283134648995 7.86710030503e-25)
(1.68116909642e-05 -0.000264523635904 -4.48395954113e-26)
(1.59481744859e-05 -0.000246721254152 -3.52840372894e-35)
(1.51348214904e-05 -0.000229692924595 1.33626431927e-24)
(1.43693202231e-05 -0.000213405771557 1.24168716183e-24)
(1.36488744711e-05 -0.000197828137586 4.30435986464e-35)
(1.29707258789e-05 -0.000182929727642 -1.46075793859e-26)
(1.23331037866e-05 -0.000168681111331 0)
(1.17343245745e-05 -0.000155054606685 -4.4540937344e-25)
(1.11717403393e-05 -0.000142023303663 -4.30080920888e-25)
(1.06430573769e-05 -0.000129561777103 3.5242400922e-25)
(1.01459556454e-05 -0.000117645632147 -1.33404852423e-24)
(9.67828883016e-06 -0.000106251428549 1.61378175125e-26)
(9.23856900629e-06 -9.5356535841e-05 0)
(8.81975041437e-06 -8.49396385035e-05 -1.28712835366e-26)
(8.41393123061e-06 -7.49804845481e-05 -8.73853804679e-25)
(8.01935185283e-06 -6.54594174853e-05 0)
(7.6360866319e-06 -5.63573635424e-05 -3.33363959788e-25)
(7.26379426093e-06 -4.76563572869e-05 -8.33483534818e-27)
(6.90218684497e-06 -3.93386466853e-05 2.26483281758e-25)
(6.55107535907e-06 -3.13877294706e-05 0)
(6.21016749394e-06 -2.37876128896e-05 1.37247203472e-25)
(5.87910036175e-06 -1.65231483003e-05 0)
(5.55989598902e-06 -9.57935757156e-06 -1.11628629369e-25)
(5.18819527677e-06 -2.9400432125e-06 0)
(0.0215503482267 -0.215262817175 -2.39137407036e-24)
(0.0209510874556 -0.212837999301 4.09357986738e-25)
(0.020867861878 -0.208971202489 0)
(0.0202911425768 -0.205310831358 0)
(0.0200850173493 -0.201532060948 -2.30790313316e-24)
(0.0196332780053 -0.197826792728 -2.23740992671e-24)
(0.0193275517778 -0.194102691643 3.94112574102e-25)
(0.0189426881358 -0.190413399916 0)
(0.0185987560003 -0.186737869091 0)
(0.018236895285 -0.183087020982 1.96105484145e-24)
(0.0178844852692 -0.179458100401 3.71467549271e-25)
(0.0175300756887 -0.175853888967 -1.83104157304e-24)
(0.0171785769227 -0.172275037592 0)
(0.0168284212708 -0.168722956857 -1.70650810998e-24)
(0.0164804388698 -0.165198778026 -2.2633347984e-24)
(0.0161346142182 -0.161703702117 -3.17496435325e-24)
(0.0157912009922 -0.158238883712 -2.52576313642e-24)
(0.0154503604251 -0.154805461963 0)
(0.0151122724396 -0.151404548703 1.41934302812e-24)
(0.0147771024891 -0.148037228545 1.36607687939e-24)
(0.014445010655 -0.144704554782 -6.27526106566e-25)
(0.0141161495711 -0.141407548098 0)
(0.0137906641904 -0.138147194648 0)
(0.0134686921818 -0.134924443099 0)
(0.0131503637825 -0.13174020311 2.24093816324e-24)
(0.0128358014734 -0.128595344018 2.15088593117e-24)
(0.0125251204797 -0.125490692904 -1.50482150396e-24)
(0.0122184284035 -0.12242703309 5.27944696992e-25)
(0.011915825193 -0.119405103056 4.84702502073e-24)
(0.0116174036858 -0.116425595485 2.34213029189e-24)
(0.0113232491801 -0.113489156164 0)
(0.011033439616 -0.110596383172 -1.66589457383e-24)
(0.0107480460381 -0.107747826505 -1.59397675154e-24)
(0.0104671321741 -0.104943987601 -2.47121351546e-24)
(0.010190754947 -0.102185318947 -2.39750256926e-24)
(0.0099189648955 -0.0994722240267 0)
(0.00965180547085 -0.096805057331 8.97433571109e-25)
(0.00938931360072 -0.0941841245404 -8.76425292749e-25)
(0.009131520565 -0.0916096828496 -8.43733904197e-25)
(0.00887845132114 -0.0890819413291 3.32801085595e-25)
(0.00863012458432 -0.0866010615789 1.90679954217e-24)
(0.0083865537761 -0.0841671584023 0)
(0.00814774687216 -0.0817803004148 1.52997670182e-24)
(0.00791370638276 -0.0794405111112 7.55245368942e-25)
(0.00768442985515 -0.0771477699602 1.72533748905e-25)
(0.00745990985253 -0.0749020132239 8.64629223911e-25)
(0.00724013428028 -0.0727031351955 6.98122826884e-25)
(0.00702508678984 -0.070550989548 0)
(0.00681474656655 -0.0684453904519 6.61440447399e-25)
(0.00660908869214 -0.0663861140453 0)
(0.0064080846538 -0.0643728998973 9.09596145474e-26)
(0.00621170212855 -0.0624054522128 3.75502844563e-24)
(0.00601990520972 -0.0604834414606 1.21049080059e-24)
(0.00583265490436 -0.0586065060456 -1.14979880941e-24)
(0.0056499090569 -0.0567742535753 -1.06975898151e-26)
(0.00547162254382 -0.0549862624269 0)
(0.00529774769787 -0.0532420835106 -1.10780823622e-24)
(0.00512823421476 -0.051541241686 3.97711315042e-24)
(0.00496302927328 -0.0498832372862 1.96687568805e-24)
(0.00480207803724 -0.0482675478335 0)
(0.0046453236849 -0.0466936294795 1.85125071419e-24)
(0.00449270732412 -0.0451609184617 -7.46050992233e-25)
(0.00434416837944 -0.0436688327988 -1.58297913139e-24)
(0.00419964486843 -0.042216773776 0)
(0.00405907332424 -0.0408041272443 1.63455049484e-24)
(0.00392238890564 -0.0394302651253 -1.59510378207e-24)
(0.00378952570266 -0.0380945469448 5.63596522096e-25)
(0.00366041686436 -0.0367963211338 2.01700187897e-24)
(0.00353499463366 -0.0355349262906 -1.43706328335e-24)
(0.00341319049916 -0.0343096925441 3.73960229604e-24)
(0.00329493535761 -0.0331199428669 8.95542824629e-25)
(0.00318015960138 -0.0319649942621 -3.44737297855e-24)
(0.0030687932244 -0.0308441589093 4.69366838624e-25)
(0.00296076596396 -0.0297567453224 -4.72646556555e-25)
(0.00285600740107 -0.0287020594623 1.89064232496e-24)
(0.00275444703349 -0.0276794057702 2.74765419489e-24)
(0.00265601438044 -0.0266880881593 -6.2834258503e-25)
(0.00256063909501 -0.0257274109854 2.11999708063e-24)
(0.00246825104006 -0.0247966799654 1.02901586791e-24)
(0.0023787803503 -0.0238952030361 -3.96280599121e-24)
(0.00229215751515 -0.0230222911703 1.9074470633e-24)
(0.00220831347341 -0.0221772591549 0)
(0.00212717969269 -0.0213594263214 -1.78433126767e-24)
(0.00204868822098 -0.020568117235 -1.72087694522e-24)
(0.00197277172724 -0.019802662346 3.85101519578e-25)
(0.00189936355884 -0.0190623985928 3.61739485412e-25)
(0.00182839781707 -0.0183466699501 -3.07031645559e-24)
(0.00175980942048 -0.0176548279408 0)
(0.00169353413602 -0.0169862321235 -2.8512421876e-24)
(0.00162950859606 -0.0163402505474 -8.17430516539e-25)
(0.00156767033544 -0.0157162601556 5.26595806528e-25)
(0.00150795785066 -0.0151136471341 4.93707668256e-25)
(0.00145031064622 -0.0145318072342 -3.22147231273e-24)
(0.00139466924918 -0.0139701460802 0)
(0.00134097521362 -0.0134280794472 0)
(0.00128917113851 -0.0129050334951 0)
(0.00123920070019 -0.0124004449614 -2.11120031936e-24)
(0.00119100868765 -0.0119137613185 2.03065678709e-24)
(0.00114454101483 -0.01144444092 0)
(0.00109974470372 -0.0109919531447 -1.87768380704e-24)
(0.00105656788334 -0.0105557784925 -2.72130449877e-25)
(0.00101495983842 -0.0101354086264 -2.54247695403e-25)
(0.00097487094751 -0.00973034641744 1.42063404017e-24)
(0.000936252435948 -0.00934010605694 -2.21675392411e-25)
(0.000899059826642 -0.00896421271917 0)
(0.000863237970598 -0.00860220353393 -4.81373310789e-24)
(0.000828706773707 -0.00825363064631 -3.59867654762e-25)
(0.00079540865981 -0.00791805721116 -1.36347826878e-24)
(0.000763312319658 -0.00759504690636 3.92111283975e-24)
(0.000732380076819 -0.00728418669554 0)
(0.000702576186027 -0.00698506785141 2.41224048531e-24)
(0.000673868338993 -0.00669729278697 -2.06259386762e-24)
(0.000646219372967 -0.00642046506855 2.34738730973e-25)
(0.000619595287301 -0.00615421560703 2.18303165542e-25)
(0.000593965981876 -0.00589818383856 -1.84097637902e-24)
(0.000569301332247 -0.00565200345187 -3.91680323901e-24)
(0.000545566521416 -0.00541534586579 -3.75259537766e-24)
(0.000522735642911 -0.00518784539284 1.62636068157e-25)
(0.000500776564709 -0.00496921008114 -9.46457250927e-35)
(0.000479661028195 -0.00475910411433 -1.79048972277e-24)
(0.000459358182944 -0.00455722650894 -1.29781866306e-25)
(0.000439835997572 -0.00436327564569 -1.51585434604e-24)
(0.000421075665864 -0.00417696767694 1.11398321836e-25)
(0.000403053879372 -0.00399804588322 2.0631890122e-25)
(0.000385741515919 -0.00382621097689 1.9102499514e-25)
(0.00036910848292 -0.00366120776175 1.10271929983e-24)
(0.000353145723459 -0.00350277335828 -1.63313866336e-25)
(0.000337818215882 -0.00335068499199 2.19193580918e-24)
(0.000323098018478 -0.00320470236816 -1.39062300395e-25)
(0.000308970885423 -0.00306457498721 2.14790788581e-24)
(0.000295418344076 -0.00293010985494 0)
(0.000282414600548 -0.00280108103884 0)
(0.000269939125243 -0.00267728700154 1.87807557321e-24)
(0.000257984841604 -0.00255851338385 -9.29603561207e-26)
(0.000246528705625 -0.00244458107716 4.98380027043e-24)
(0.000235544545954 -0.00233529135911 -3.36343179101e-24)
(0.000225013501125 -0.0022304633377 0)
(0.000214916674651 -0.00212993450283 0)
(0.000205237013001 -0.00203353773508 1.1984070715e-25)
(0.000195960377004 -0.00194111480261 7.24671461421e-34)
(0.000187074243639 -0.00185251390834 -1.40764539957e-24)
(0.000178568458349 -0.00176757893489 -1.24782817056e-24)
(0.000170430952044 -0.00168617037694 1.1061043677e-24)
(0.000162651345096 -0.00160813518108 -1.21491591768e-24)
(0.00015521683598 -0.00153334544924 0)
(0.000148111133048 -0.00146166427056 -6.49873879055e-26)
(0.000141315821113 -0.00139296199307 -2.03263720034e-24)
(0.00013481613195 -0.00132713306781 -1.88225879367e-24)
(0.000128599940274 -0.00126405841058 1.79437683602e-24)
(0.000122656070268 -0.00120363110073 -4.16225868292e-26)
(0.000116971317284 -0.00114574540903 -3.6874865555e-26)
(0.000111531102455 -0.00109029944239 0)
(0.000106322887798 -0.00103719126066 2.94940296529e-24)
(0.000101330679105 -0.000986329407093 -2.16991509284e-26)
(9.65448644978e-05 -0.000937616479419 -1.70985295245e-26)
(9.19582814877e-05 -0.000890968393714 0)
(8.7561778872e-05 -0.000846298867556 -1.20629016829e-24)
(8.33539213044e-05 -0.000803526560235 1.13379294204e-24)
(7.93297080003e-05 -0.000762574603722 -4.56914033197e-34)
(7.54827939661e-05 -0.000723365244905 1.03505224777e-24)
(7.18085640757e-05 -0.000685827741434 -1.95966960579e-24)
(6.83062504439e-05 -0.000649892468178 -9.29176460686e-25)
(6.49757483846e-05 -0.000615492170727 2.64118006889e-29)
(6.18098463747e-05 -0.000582562990687 1.66682412008e-24)