/*--------------------------------*- C++ -*----------------------------------*\
| =========                 |                                                 |
| \\      /  F ield         | OpenFOAM: The Open Source CFD Toolbox           |
|  \\    /   O peration     | Version:  2412                                  |
|   \\  /    A nd           | Website:  www.openfoam.com                      |
|    \\/     M anipulation  |                                                 |
\*---------------------------------------------------------------------------*/
FoamFile
{
    version     2.0;
    format      ascii;
    arch        "LSB;label=32;scalar=64";
    class       surfaceScalarField;
    location    "1";
    object      meshPhi;
}
// * * * * * * * * * * * * * * * * * * * * * * * * * * * * * * * * * * * * * //

dimensions      [0 3 -1 0 0 0 0];

oriented        oriented;

internalField   nonuniform List<scalar> 
127680
(
2.09727722877e-05
0.000971330936436
-0.00097151820613
2.11644251076e-05
0.000994071156101
-0.000994262808921
2.13605658647e-05
0.00101734375468
-0.00101753989544
2.15612991554e-05
0.00104116119876
-0.00104136193205
2.17667306542e-05
0.00106553624262
-0.00106574167412
2.19769714274e-05
0.00109048194031
-0.00109069218109
2.21921346979e-05
0.00111601165106
-0.00111622681433
2.24123347668e-05
0.00114213904894
-0.00114235924901
2.26376913267e-05
0.00116887812506
-0.00116910348162
2.28683229921e-05
0.0011962432005
-0.00119647383216
2.31043537689e-05
0.00122424893166
-0.00122448496244
2.3345910898e-05
0.00125291031574
-0.00125315187287
2.35931237769e-05
0.0012822427025
-0.00128248991538
2.38461228816e-05
0.00131226180189
-0.001312514801
2.41050451575e-05
0.00134298369155
-0.00134324261382
2.43700297072e-05
0.00137442482221
-0.00137468980676
2.46412188679e-05
0.00140660203389
-0.00140687322305
2.4918756055e-05
0.00143953256017
-0.00143981009735
2.52027900759e-05
0.00147323403578
-0.0014735180698
2.5493474051e-05
0.0015077245106
-0.00150801519457
2.5790963257e-05
0.00154302245504
-0.00154331994425
2.60954183627e-05
0.00157914677409
-0.00157945122919
2.64070000367e-05
0.00161611681374
-0.00161642839541
2.67258764959e-05
0.00165395237505
-0.00165427125151
2.70522191918e-05
0.00169267371845
-0.00169300006115
2.73862006544e-05
0.00173230158419
-0.00173263556565
2.77280020404e-05
0.00177285719239
-0.00177319899378
2.80778055845e-05
0.00181436226566
-0.00181471206921
2.84357978348e-05
0.00185683903018
-0.00185719702243
2.88021718094e-05
0.00190031023511
-0.00190067660908
2.91771216044e-05
0.00194479916229
-0.00194517411209
2.9560851021e-05
0.00199032963813
-0.00199071336755
2.99535627819e-05
0.00203692604544
-0.0020373187572
3.03554693148e-05
0.00208461333959
-0.00208501524612
3.07667852038e-05
0.00213341706042
-0.00213382837631
3.11877304248e-05
0.00218336334516
-0.00218378429039
3.16185303449e-05
0.00223447894351
-0.00223490974343
3.20594168016e-05
0.00228679122736
-0.00228723211381
3.25106237887e-05
0.00234032821665
-0.00234077942364
3.29723950047e-05
0.00239511858157
-0.00239558035279
3.3444976305e-05
0.00245119166624
-0.00245166424754
3.39286221714e-05
0.0025085774995
-0.00250906114537
3.44235903206e-05
0.00256730681543
-0.00256780178358
3.49301470957e-05
0.00262741106841
-0.00262791762519
3.54485609968e-05
0.00268892244607
-0.00268944085997
3.59791134634e-05
0.00275187388977
-0.00275240444224
3.65220870131e-05
0.00281629911621
-0.00281684208976
3.70777717124e-05
0.00288223262707
-0.00288278831177
3.76464662539e-05
0.00294970973385
-0.0029502784284
3.82284747216e-05
0.00301876657514
-0.0030193485836
3.88241087478e-05
0.00308944013273
-0.00309003576675
3.94336864348e-05
0.00316176825863
-0.00316237783632
4.00575366681e-05
0.00323578968584
-0.00323641353608
4.06959904896e-05
0.00331154406068
-0.0033121825145
4.13493918808e-05
0.00338907194927
-0.00338972535066
4.20180912939e-05
0.00346841487527
-0.00346908357468
4.27024456497e-05
0.00354961533067
-0.00355029968502
4.34028215746e-05
0.00363271680274
-0.00363341717866
4.41195932434e-05
0.00371776379668
-0.00371848056835
4.48531466922e-05
0.00380480185934
-0.00380553541278
4.56038733481e-05
0.00389387760617
-0.00389462833282
4.63721754217e-05
0.00398503874064
-0.00398580704271
4.71584648287e-05
0.00407833408444
-0.00407912037385
4.79631631889e-05
0.00417381360335
-0.00417461830171
4.87866985926e-05
0.0042715284331
-0.00427235196851
4.96295153054e-05
0.00437153090205
-0.00437237371877
5.04920629827e-05
0.00447387457
-0.00447473711767
5.13748052992e-05
0.00457861424648
-0.0045794969888
5.22782134777e-05
0.00468580602533
-0.00468670943351
5.32027706018e-05
0.00479550731484
-0.00479643187196
5.41489737743e-05
0.0049077768647
-0.00490872306788
5.51173287234e-05
0.00502267480273
-0.00502364315767
5.61083541174e-05
0.00514026266173
-0.00514125368713
5.71225815645e-05
0.00526060341734
-0.00526161764479
5.81605534563e-05
0.0053837615203
-0.00538479949219
5.92228251237e-05
0.0055098029256
-0.00551086519726
6.03099659153e-05
0.00563879513776
-0.00563988227855
6.14225581206e-05
0.00577080723782
-0.00577191983003
6.25611980466e-05
0.00590590992642
-0.00590704856634
6.37264949384e-05
0.00604417555833
-0.00604534085522
6.49190731408e-05
0.00618567818344
-0.00618687076165
6.61395710141e-05
0.00633049358234
-0.00633171408021
6.73886430944e-05
0.00647869931265
-0.00647994838473
6.86669579352e-05
0.0066303747479
-0.00663165306274
6.99751981088e-05
0.00678560111737
-0.00678690935754
7.1314068831e-05
0.0069444615525
-0.00694580042322
7.2684282867e-05
0.00710704113539
-0.00710841134943
7.40865745478e-05
0.00727342693332
-0.007274829225
7.55216965351e-05
0.00744370805589
-0.00744514317788
7.69904165886e-05
0.00761797569816
-0.00761944441821
7.84935218754e-05
0.00779632319024
-0.00779782629552
8.00318168167e-05
0.00797884604799
-0.00798038434293
8.16061263224e-05
0.00816564202044
-0.00816721632995
8.32172914759e-05
0.00835681114914
-0.0083584223143
8.48661770842e-05
0.00855245581556
-0.00855410470117
8.65536641277e-05
0.00875268079826
-0.0087543682853
8.82806594698e-05
0.00895759332679
-0.00895932032214
9.00480850656e-05
0.00916730314645
-0.00916907057204
9.18568876741e-05
0.00938192256779
-0.0093837313704
9.37080377774e-05
0.00960156652816
-0.00960341767827
9.56025263439e-05
0.00982635266286
-0.00982824715142
9.75413680655e-05
0.0100564013568
-0.0100583401986
9.95255992019e-05
0.0102918358127
-0.0102938200439
0.000101556284048
0.0105327821198
-0.0105348128047
0.000103634511697
0.0107793693165
-0.0107814475441
0.000105758386791
0.0110315727475
-0.0110336995973
0.000107923399291
0.0112890702802
-0.0112912467757
0.000110129484439
0.0115516282559
-0.0115538553716
0.000112376571687
0.0118192480274
-0.0118215267389
0.000114664501855
0.0120919251176
-0.0120942564006
0.000116993016704
0.0123696442317
-0.0123720290585
0.000119361747864
0.0126523781866
-0.012654817522
0.000121770214771
0.0129400867747
-0.0129425815814
0.000124217801437
0.0132327155478
-0.013235266771
0.000126703756167
0.0135301944995
-0.0135328030752
0.000129227176473
0.0138324366765
-0.0138351035253
0.000131786989984
0.0141393366893
-0.0141420627066
0.000134381948454
0.0144507691132
-0.0144535551733
0.000137010610144
0.0147665868091
-0.0147694337581
0.000139671323448
0.0150866191204
-0.0150895277708
0.000142362210644
0.0154106699636
-0.0154136410895
0.000145081151739
0.0157385158123
-0.0157415501458
0.00014782576519
0.0160699035561
-0.0160730017802
0.000150593387632
0.0164045482498
-0.016407710992
0.000153381055759
0.016742130733
-0.0167453585605
0.000156185480853
0.0170822951346
-0.0170855885435
0.00015900303389
0.0174246462529
-0.0174280056678
0.000161829710727
0.0177687468186
-0.0177721725734
0.000164661120483
0.0181141146339
-0.0181176069754
0.000167492450953
0.0184602196083
-0.0184637786779
0.000170318445817
0.0188064806728
-0.0188101064997
0.000173133379908
0.0191522626097
-0.0191559551028
0.000175931026665
0.0194968727866
-0.0195006317177
0.000178704638399
0.0198395578121
-0.0198433828132
0.000181446908782
0.0201795001495
-0.0201833906903
0.000184149950532
0.0205158146766
-0.0205197700581
0.000186805264001
0.0208475452488
-0.0208515645862
0.000189403713203
0.02117366128
-0.0211777434923
0.000191935497429
0.0214930543783
-0.0214971981721
0.000194390108622
0.0218045350965
-0.0218087389335
0.00019675635152
0.0221068297892
-0.0221110919149
0.000199022262008
0.0223985777721
-0.0224028961392
0.000201175141373
0.0226783286291
-0.0226827009342
0.000203201509999
0.0229445400219
-0.0229489636572
0.000205087085651
0.0231955757949
-0.0232000478208
0.000206816821767
0.0234297047743
-0.0234342219451
0.0002083748596
0.0236451000664
-0.0236496587651
0.000209744552728
0.0238398393627
-0.0238444355998
0.000210908507551
0.0240119058818
-0.0240165353018
0.000211848555185
0.0241591907736
-0.0241638485837
0.000212545840193
0.0242794964509
-0.0242841774545
0.000212980860513
0.0243705417072
-0.0243752402773
0.000213133476073
0.0244299683345
-0.0244346783401
0.000212983121595
0.0244553497656
-0.0244600646875
0.000212508741421
0.0244442020498
-0.0244489147999
0.000211689088599
0.0243939971091
-0.0243987001938
0.000210502743641
0.0243021791309
-0.0243068645119
0.000208928363687
0.0241661838865
-0.0241708430478
0.000206944877988
0.0239834617642
-0.0239880856977
0.00020453172768
0.0237515047125
-0.0237560839184
0.000201669177143
0.023467877488
-0.0234724020142
0.000198338619796
0.0231302538033
-0.0231347132442
0.000194522939927
0.0227364576109
-0.0227408411238
0.000190206978026
0.022284510165
-0.0222888065501
0.000185377959362
0.021772683172
-0.0217768808715
0.000180026068318
0.0211995585942
-0.0212036457922
0.000174145043805
0.020564095448
-0.0205680601436
0.000167732783025
0.0198657040909
-0.0198695341299
0.000160792143489
0.0191043281583
-0.0191080114137
0.000153331665135
0.0182805346782
-0.0182840590995
0.000145366499435
0.017395612274
-0.0173989660938
0.000136919272945
0.0164516777021
-0.0164548495297
0.000128021133586
0.0154517904363
-0.0154547694899
0.000118712784829
0.0144000750942
-0.0144028513814
0.000109045601697
0.0133018510452
-0.0133044155952
9.90828095886e-05
0.0121637683175
-0.0121661134543
8.89006499706e-05
0.0109939486201
-0.0109960682159
7.85896259347e-05
0.00980212966229
-0.00980401948004
6.82556968118e-05
0.0085998107345
-0.00860146874956
5.80214668333e-05
0.00740039665134
-0.00740182342468
4.80273028881e-05
0.00621933669631
-0.00622053576337
3.84323659091e-05
0.00507425434979
-0.00507523264846
2.94154839808e-05
0.00398506278901
-0.00398583109616
2.11758271956e-05
0.00297406020625
-0.00297463359516
1.3933327134e-05
0.00206599798817
-0.0020663963058
7.92875493883e-06
0.00128811375369
-0.00128836209774
3.42338585455e-06
0.000670120092029
-0.000670249288802
6.98156174742e-07
0.000244138727492
-0.000244185796665
0
4.15323874027e-05
-4.1540394708e-05
0
0
0
0
0
0
0
0
0
0
0
0
0
0
0
0
0
0
0
0
0
0
0
0
0
0
0
0
0
0
0
0
6.29102305967e-05
0.000970769200354
6.34851178876e-05
0.00099349626881
6.40734635987e-05
0.00101675540897
6.46755825972e-05
0.00104055907976
6.52917994552e-05
0.00106492002576
6.59224430582e-05
0.00108985129671
6.65678498395e-05
0.00111536624428
6.7228367016e-05
0.00114147853177
6.79043471958e-05
0.00116820214488
6.85961537704e-05
0.00119555139392
6.93041555226e-05
0.00122354092991
7.0028734175e-05
0.00125218573709
7.07702746854e-05
0.00128150116199
7.15291760294e-05
0.00131150290055
7.23058447309e-05
0.00134220702285
7.31006970185e-05
0.00137362996992
7.39141566692e-05
0.00140578857423
7.47466603995e-05
0.00143870005644
7.55986546308e-05
0.00147238204155
7.64705965679e-05
0.00150685256866
7.73629509633e-05
0.00154213010065
7.82761955096e-05
0.00157823352954
7.9210820839e-05
0.00161518218841
8.0167328367e-05
0.00165299586753
8.11462270571e-05
0.00169169481976
8.21480452824e-05
0.00173129976597
8.31733157296e-05
0.00177183192194
8.42225894161e-05
0.00181331299197
8.52964292216e-05
0.00185576519037
8.63954077295e-05
0.0018992112566
8.75201158556e-05
0.00194367445417
8.86711552982e-05
0.00198917859869
8.98491428522e-05
0.00203574805788
9.10547071737e-05
0.00208340777527
9.22884952505e-05
0.00213218327235
9.35511680882e-05
0.00218210067233
9.48434028669e-05
0.00223318670873
9.61658897071e-05
0.00228546874052
9.75193381381e-05
0.00233897476822
9.89044727864e-05
0.00239373344692
0.000100322036609
0.00244977410241
0.000101772785503
0.00250712675061
0.00010325749909
0.00256582210185
0.000104776972084
0.00262589159542
0.000106332019691
0.00268736739846
0.000107923471133
0.00275028243833
0.000109552181511
0.00281467040583
0.000111219021025
0.00288056578755
0.000112924884673
0.00294800387021
0.000114670684709
0.0030170207751
0.000116457356029
0.00308765346141
0.000118285857253
0.00315993975741
0.000120157164254
0.00323391837884
0.000122072283098
0.00330962894184
0.000124032237103
0.00338711199526
0.000126038075468
0.0034664090369
0.000128090873271
0.00354756253286
0.000130191731468
0.00363061594454
0.000132341772584
0.00371561375556
0.000134542149333
0.00380260148259
0.000136794039235
0.00389162571626
0.000139098651076
0.0039827341288
0.000141457215213
0.00407597552031
0.000143870996505
0.00417139982206
0.000146341288928
0.00426905814068
0.000148869414493
0.00436900277649
0.000151456726483
0.00447128725801
0.000154104610529
0.00457596636243
0.000156814485691
0.00468309615017
0.000159587803377
0.00479273399715
0.000162426047346
0.00490493862074
0.000165330740176
0.0050197701099
0.000168303434635
0.00513728996727
0.000171345723393
0.00525756112858
0.000174459237936
0.00538064800575
0.000177645643179
0.00550661652035
0.000180906647169
0.00563553413377
0.000184243995695
0.0057674698893
0.000187659476597
0.00590249444551
0.000191154917619
0.00604068011731
0.000194732192864
0.0061821009082
0.000198393217419
0.00632683255779
0.000202139950575
0.0064749525795
0.000205974400152
0.00662654029832
0.000209898620335
0.00678167689719
0.000213914710599
0.00694044546223
0.000218024824334
0.00710293102166
0.000222231162377
0.00726922059528
0.000226535975165
0.0074394032431
0.000230941570288
0.00761357010304
0.000235450307094
0.00779181445343
0.000240064598847
0.00797423175623
0.000244786918117
0.00816091970117
0.000249619792469
0.00835197827479
0.000254565812012
0.00854750979602
0.000259627626157
0.00874761898411
0.000264807942549
0.0089524130104
0.000270109537843
0.00916200155115
0.000275535252313
0.00937649685332
0.000281087988778
0.0095960137917
0.000286770722303
0.00982066992933
0.000292586496965
0.0100505855822
0.000298538426928
0.0102858838828
0.000304629700765
0.010526690846
0.000310863579294
0.0107731354379
0.000317234388375
0.0110251930154
0.000323728590363
0.0112825416334
0.000330345994702
0.0115449477678
0.000337086392381
0.0118124127693
0.000343949299929
0.0120849321683
0.000350933945371
0.0123624906721
0.000358039229607
0.0126450611168
0.000365263698716
0.0129326033196
0.000372605516258
0.0132250628605
0.000380062425795
0.0135223697742
0.000387631710023
0.013824437162
0.000395310163523
0.0141311596883
0.000403094039384
0.0144424120058
0.000410979009242
0.0147580470613
0.000418960122708
0.0150778942913
0.000427031746872
0.0154017577313
0.000435187523181
0.0157294139806
0.000443420305365
0.0160606100782
0.000451722107112
0.0163950612411
0.000460084036074
0.0167324484955
0.000468496233294
0.0170724161744
0.000476947802229
0.0174145693071
0.000485426745276
0.0177584708727
0.000493919881714
0.018103638957
0.000502412779643
0.0184495437736
0.000510889675929
0.0187956045887
0.000519333391835
0.0191411865553
0.000527725256997
0.0194855974388
0.000536045022528
0.019828084284
0.000544270776124
0.0201678300274
0.000552378857763
0.0205039500586
0.000560343774634
0.0208354887861
0.000568138118127
0.0211614162193
0.000575732478141
0.0214806246111
0.000583095385056
0.0217919251863
0.000590193191225
0.0220940450654
0.000596990067476
0.0223856243172
0.000603447875679
0.0226652133995
0.000609526192972
0.0229312708285
0.000615182206701
0.0231821614277
0.000620370747039
0.0234161550044
0.00062504424531
0.0236314257422
0.000629152813992
0.023826052406
0.000632644209558
0.0239980194266
0.000635464002821
0.0241452191265
0.000637555600724
0.024265455233
0.000638860456757
0.0243564478458
0.000639318281853
0.0244158400963
0.000638867236397
0.0244412068573
0.000637444319615
0.0244300655753
0.000634985660705
0.0243798896847
0.000631427079591
0.0242881247979
0.000626704541835
0.0241522082037
0.000620754844409
0.0239695917513
0.000613516345753
0.0237377688382
0.000604929806845
0.0234543056445
0.000594939405049
0.0231168772137
0.000583493832556
0.0227233087659
0.000570547594027
0.0222716226828
0.000556062404813
0.0217600916867
0.000540008814556
0.0211872985561
0.000522367988428
0.0205522029096
0.000503133688684
0.0198542154397
0.000482314427693
0.01909327983
0.000459935886951
0.018269962755
0.000436043450222
0.0173855521179
0.000410705031973
0.0164421634372
0.0003840140458
0.0154428544225
0.000356092584878
0.014391747306
0.00032709477371
0.0132941583727
0.000297210226796
0.0121567338227
0.000266667678033
0.0109875906449
0.000235738581597
0.00979646093709
0.000204740777604
0.00859483732899
0.000174042028894
0.00739611688577
0.000144063390846
0.00621573995645
0.000115282282147
0.00507131982784
8.82351115935e-05
0.00398275816466
6.35193175101e-05
0.00297234026077
4.17946093636e-05
0.00206480318894
2.37832077672e-05
0.00128736881717
1.02688379536e-05
0.000669732551005
2.09419932748e-06
0.000243997538285
0
4.15083685601e-05
0
0
0
0
0
0
0
0
0
0
0
0
0
0
0
0
0
0
0
0
0
0.000104823435498
0.000969833214841
0.000105781334049
0.000992538370259
0.000106761658268
0.00101577508475
0.000107764934372
0.00103955580365
0.000108791697204
0.00106389326293
0.00010984249886
0.00108880049506
0.00011091790114
0.001114290842
0.000112018479864
0.00114037795304
0.000113144824869
0.00116707579988
0.000114297537853
0.00119439868094
0.000115477239924
0.00122236122784
0.000116684557582
0.00125097841943
0.000117920142127
0.00128026557745
0.000119184653488
0.00131023838919
0.000120478768844
0.00134091290749
0.000121803180472
0.00137230555829
0.000123158597902
0.0014044331568
0.000124545748995
0.00143731290534
0.00012596537563
0.00147096241491
0.00012741823586
0.00150539970843
0.000128905110385
0.00154064322612
0.000130426794999
0.00157671184493
0.000131984104905
0.0016136248785
0.000133577872563
0.00165140209987
0.000135208953073
0.00169006373925
0.00013687821879
0.00172963050025
0.000138586564714
0.00177012357602
0.000140334906332
0.00181156465036
0.000142124177464
0.00185397591924
0.000143955339964
0.0018973800941
0.000145829370783
0.00194180042335
0.000147747275986
0.00198726069349
0.00014971008105
0.00203378525282
0.000151718839486
0.00208139901683
0.000153774625293
0.00213012748654
0.000155878540507
0.00217999675711
0.000158031710885
0.00223103353836
0.000160235290224
0.00228326516118
0.000162490458195
0.00233671960025
0.000164798422511
0.00239142548261
0.000167160418917
0.00244741210601
0.00016957771443
0.0025047094551
0.000172051601947
0.00256334821433
0.000174583405637
0.00262335979173
0.000177174483095
0.002684776321
0.00017982622103
0.0027476307004
0.000182540039581
0.00281195658728
0.00018531739447
0.00287778843267
0.000188159768376
0.0029451614963
0.000191068688191
0.00301411185529
0.000194045708841
0.00308467644076
0.000197092426229
0.00315689304002
0.000200210471842
0.00323080033323
0.000203401514907
0.00330643789877
0.000206667263473
0.0033838462467
0.000210009469797
0.00346306683058
0.000213429920643
0.00354414208202
0.000216930449143
0.00362711541604
0.000220512930483
0.00371203127422
0.000224179281901
0.00379893513117
0.000227931469163
0.003887873529
0.000231771499008
0.00397889409895
0.000235701429935
0.00407204558938
0.000239723365732
0.00416737788626
0.000243839461946
0.00426494204447
0.000248051919412
0.00436479031902
0.000252362998275
0.00446697617914
0.000256775005046
0.00457155435566
0.000261290303384
0.00467858085183
0.000265911310868
0.00478811298967
0.000270640502225
0.00490020942938
0.000275480410411
0.00501493020171
0.000280433628768
0.00513233674892
0.000285502807788
0.00525249194956
0.000290690663742
0.0053754601498
0.000295999975441
0.00550130720865
0.000301433585317
0.0056301005239
0.000306994403736
0.00576190907088
0.000312685406841
0.00589680344241
0.000318509646256
0.00603485587789
0.000324470239383
0.00617614031507
0.00033057037695
0.00632073242022
0.000336813328401
0.00646870962805
0.000343202435426
0.0066201511913
0.000349741120589
0.00677513821202
0.000356432886251
0.00693375369657
0.000363281314566
0.00709608259334
0.000370290073953
0.00726221183589
0.000377462920175
0.00743223039688
0.000384803690948
0.00760622933226
0.000392316319955
0.00778430182442
0.000400004830381
0.00796654324581
0.000407873339224
0.00815305119233
0.000415926061608
0.00834392555241
0.000424167308627
0.008539268549
0.000432601494892
0.00873918479784
0.000441233137457
0.00894378136784
0.000450066859046
0.00915316782956
0.000459107390217
0.00936745632215
0.000468359572594
0.00958676160932
0.000477828362103
0.00981120113982
0.000487518830048
0.0100408951142
0.00049743616419
0.0102759665486
0.000507585677375
0.0105165413328
0.000517972805379
0.0107627483099
0.000528588091211
0.0110145628617
0.000539408979395
0.0112716633521
0.000550435151753
0.0115338164829
0.000561666257967
0.0118010236029
0.000573101499416
0.0120732802464
0.000584739583503
0.0123505711367
0.000596578679077
0.0126328691361
0.000608616367389
0.0129201340988
0.000620849585186
0.0132123116597
0.000633274570529
0.0135093319201
0.000645886804684
0.0138111080617
0.000658680937061
0.0141175348571
0.000671650728422
0.0144284870742
0.000684788970386
0.0147438178032
0.000698087406766
0.0150633566474
0.000711536656639
0.0153869078279
0.000725126122931
0.0157142481605
0.000738843899282
0.0160451249301
0.000752676678254
0.016379253625
0.000766609643844
0.0167163155812
0.000780626368439
0.0170559554732
0.000794708699452
0.0173977787109
0.000808836637853
0.0177413486992
0.000822988227624
0.0180861839825
0.0008371394207
0.0184317552877
0.000851263948191
0.0187774824425
0.000865333190799
0.0191227312094
0.000879316038699
0.0194668100216
0.000893178749891
0.0198089666526
0.000906884815905
0.0201483848226
0.000920394812485
0.0204841807773
0.00093366626289
0.0208153998453
0.000946653496975
0.0211410130296
0.000959307523682
0.0214599136438
0.000971575868051
0.0217709140841
0.000983402507891
0.0220727426657
0.000994727717283
0.0223640407807
0.00100548797407
0.022643360292
0.0010156158834
0.022909161206
0.00102504014962
0.0231598098957
0.00103368549046
0.0233935778626
0.00104147266612
0.0236086410456
0.00104831851647
0.0238030800549
0.00105413603256
0.0239748812639
0.00105883446228
0.0241219390505
0.00106231955192
0.0242420592286
0.00106449376813
0.0243329640988
0.00106525660871
0.0243922990897
0.0010645050671
0.0244176413943
0.00106213413071
0.0244065108581
0.00105803743241
0.0243563833404
0.00105210799038
0.0242647069275
0.00104423912126
0.0241289213814
0.00103432550308
0.023946481009
0.00102226442578
0.023714881612
0.00100795720599
0.0234316917188
0.000991310815183
0.0230945886284
0.000972239775056
0.0227013996456
0.000950668256712
0.0222501490661
0.000926532478231
0.0217391112729
0.000899783374574
0.0211668704077
0.000870389556268
0.0205323871046
0.000838340622066
0.0198350726161
0.000803650783434
0.0190748706706
0.000766362795249
0.0182523474178
0.000726552300395
0.0173687895021
0.000684332457221
0.0164263104046
0.000639858911485
0.0154279648961
0.000593335106527
0.0143778712235
0.00054501783662
0.0132813405532
0.000495223068917
0.0121450126687
0.00044433190016
0.0109769967472
0.000392796655228
0.00978701548966
0.000341146927141
0.00858655044987
0.000289995496012
0.00738898577645
0.000240043941746
0.0062097469299
0.000192087754329
0.00506643021656
0.000147020722605
0.00397891811137
0.000105838320433
0.00296947442098
6.963977941e-05
0.00206281236883
3.96284917493e-05
0.00128612757578
1.71103311073e-05
0.000669086815312
3.48943515069e-06
0.000243762283288
0
4.14683474557e-05
0
0
0
0
0
0
0
0
0
0
0
0
0
0
0
0
0
0
0
0
0
0.000146696230632
0.000968523339083
0.000148036771661
0.00099119782923
0.000149408696979
0.00101440315943
0.00015081273984
0.00103815176079
0.000152249655061
0.00106245634771
0.000153720208245
0.00108732994187
0.000155225190874
0.00111278585937
0.000156765407369
0.00113883773655
0.00015834168156
0.00116549952569
0.000159954859924
0.00119278550257
0.000161605802952
0.00122071028481
0.000163295399176
0.0012492888232
0.000165024550065
0.00127853642656
0.000166794182966
0.00130846875629
0.00016860524464
0.00133910184582
0.000170458706645
0.00137045209629
0.000172355561029
0.00140253630242
0.000174296823563
0.00143537164281
0.000176283532662
0.00146897570581
0.000178316753699
0.00150336648739
0.000180397575769
0.00153856240405
0.000182527113847
0.00157458230685
0.000184706505555
0.00161144548679
0.000186936919781
0.00164917168564
0.000189219552376
0.00168778110665
0.000191555623989
0.00172729442864
0.000193946386542
0.00176773281347
0.00019639311999
0.00180911791691
0.000198897135563
0.00185147190367
0.000201459772524
0.00189481745714
0.000204082405723
0.00193917779015
0.000206766436966
0.00198457666224
0.000209513305799
0.00203103838398
0.000212324483042
0.00207858783959
0.00021520147402
0.00212725049556
0.000218145818562
0.00217705241257
0.000221159094239
0.00222802026268
0.000224242915287
0.00228018134013
0.00022739893368
0.00233356358186
0.000230628838055
0.00238819557823
0.000233934359104
0.00244410658496
0.000237317267417
0.00250132654678
0.000240779373481
0.00255988610827
0.00024432253415
0.00261981663106
0.00024794864294
0.00268115021221
0.000251659645129
0.00274391969821
0.000255457528046
0.00280815870436
0.000259344322154
0.00287390163856
0.000263322113988
0.00294118370447
0.00026739302998
0.00301004093929
0.000271559253714
0.00308051021702
0.000275823011904
0.00315262928183
0.000280186592732
0.0032264367524
0.000284652329665
0.00330197216184
0.000289222617635
0.00337927595873
0.000293899900099
0.00345838954811
0.000298686686291
0.00353935529583
0.000303585537202
0.00362221656513
0.000308599076369
0.00370701773506
0.000313729990946
0.00379380421659
0.000318981026316
0.00388262249363
0.000324354995797
0.00397352012947
0.000329854778486
0.00406654580669
0.000335483318173
0.00416174934657
0.000341243628745
0.00425918173389
0.000347138798488
0.00435889514928
0.000353171980388
0.00446094299724
0.000359346408305
0.00456537992775
0.000365665388345
0.00467226187179
0.000372132304254
0.00478164607376
0.00037875062065
0.00489359111298
0.00038552387979
0.00500815694257
0.000392455711274
0.00512540491743
0.000399549826656
0.00524539783418
0.000406810024829
0.00536819995163
0.00041424019419
0.00549387703929
0.00042184431479
0.0056224964033
0.000429626458338
0.00575412692733
0.000437590793591
0.00588883910716
0.000445741584197
0.00602670508729
0.000454083195165
0.0061677987041
0.00046262009718
0.0063121955182
0.000471356857974
0.00645997286725
0.000480298160659
0.00661120988861
0.000489448790787
0.00676598758189
0.000498813649288
0.00692438883807
0.000508397753551
0.00708649848908
0.000518206234188
0.00725240335526
0.000528244345816
0.00742219228525
0.000538517463824
0.00759595621426
0.000549031088684
0.00777378819956
0.000559790853502
0.00795578348099
0.000570802518625
0.00814203952721
0.000582071982421
0.00833265608861
0.000593605280208
0.00852773525121
0.00060540858856
0.00872738148949
0.000617488229623
0.00893170172677
0.000629850671118
0.00914080538807
0.000642502534962
0.0093548044583
0.000655450597271
0.00957381354701
0.000668701791597
0.0097979499455
0.000682263214315
0.0100273336915
0.000696142130016
0.0102620876329
0.000710345970433
0.0105023374924
0.000724882340903
0.0107482119395
0.000739738011689
0.0109996863838
0.000754881413901
0.0112564396305
0.000770312105192
0.0115182386908
0.000786029592054
0.0117850849172
0.000802032757988
0.0120569738447
0.000818319793757
0.0123338902211
0.000834888137171
0.0126158069439
0.000851734401647
0.0129026839217
0.000868854304103
0.0131944668606
0.000886242579017
0.0134910859597
0.000903892896716
0.0137924545183
0.000921797776973
0.0140984674468
0.00093994848381
0.0144089996866
0.00095833493019
0.0147239045231
0.000976945563464
0.0150430117924
0.000995767254907
0.0153661259777
0.00101478517075
0.0156930242003
0.0010339826544
0.01602345408
0.00105334107818
0.0163571314951
0.00107283971141
0.0166937382073
0.00109245555906
0.0170329193775
0.00111216321871
0.0173742809418
0.00113193470842
0.0177173868967
0.00115173929526
0.01806175644
0.00117154332687
0.0184068610094
0.00119131004135
0.0187521212196
0.00121099938845
0.0190969036852
0.00123056782751
0.019440517779
0.00124996814135
0.0197822122871
0.00126914923522
0.0201211720322
0.00128805593784
0.0204565144545
0.001306628805
0.0207872861713
0.00132480392279
0.0211124595768
0.00134251271299
0.0214309294855
0.00135968178224
0.021741509873
0.00137623270878
0.02204293079
0.00139208187847
0.0223338354902
0.00140714042396
0.0226127777432
0.00142131404602
0.0228782196529
0.00143450292354
0.0231285298238
0.00144660173266
0.0233619820521
0.00145749957944
0.0235767547647
0.00146708007679
0.0237709311609
0.00147522144504
0.0239425003397
0.00148179671801
0.0240893595027
0.00148667397027
0.0242093174431
0.00148971669149
0.0243000995367
0.0014907842515
0.0243593543922
0.00148973250471
0.0243846624601
0.00148641447932
0.0243735469622
0.00148068131934
0.0243234871399
0.00147238328849
0.0242319345618
0.00146137111532
0.0240963324034
0.00144749741024
0.0239141384349
0.00143061841745
0.0236828518437
0.00141059602628
0.023400044435
0.00138730006287
0.023063396641
0.00136061090351
0.0226707387002
0.00133042241956
0.0222200975954
0.00129664536035
0.0217097500152
0.00125921104814
0.0211382820317
0.00121807556605
0.0205046556758
0.00117322436552
0.0198082829875
0.00112467731027
0.0190491077899
0.0010724942555
0.0182276954522
0.00101678105562
0.0173453308834
0.000957696058672
0.0164041247214
0.000895457103393
0.0154071275927
0.000830348888256
0.0143584521982
0.000762730792443
0.0132634025227
0.000693044989515
0.0121286093857
0.000621824823099
0.0109621710082
0.000549703298005
0.00977379696088
0.000477421558285
0.00857495329139
0.000405837164019
0.00737900607317