/*--------------------------------*- C++ -*----------------------------------*\
| =========                 |                                                 |
| \\      /  F ield         | OpenFOAM: The Open Source CFD Toolbox           |
|  \\    /   O peration     | Version:  2412                                  |
|   \\  /    A nd           | Website:  www.openfoam.com                      |
|    \\/     M anipulation  |                                                 |
\*---------------------------------------------------------------------------*/
FoamFile
{
    version     2.0;
    format      ascii;
    arch        "LSB;label=32;scalar=64";
    class       volScalarField;
    location    "1";
    object      p;
}
// * * * * * * * * * * * * * * * * * * * * * * * * * * * * * * * * * * * * * //

dimensions      [1 -1 -2 0 0 0 0];

internalField   nonuniform List<scalar> 
64000
(
-0.082185938856
-0.0818631804478
-0.0815502467639
-0.0812431502579
-0.0809445119647
-0.0806534117431
-0.0803704118125
-0.0800955332246
-0.0798289485948
-0.0795707827124
-0.0793211635113
-0.0790802109831
-0.078848039311
-0.078624756602
-0.0784104651782
-0.0782052615665
-0.07800923661
-0.077822475771
-0.0776450592366
-0.0774770620291
-0.0773185542751
-0.0771696014502
-0.0770302646375
-0.07690060073
-0.0767806625667
-0.0766704992384
-0.0765701564266
-0.0764796766305
-0.076399099485
-0.0763284620893
-0.076267799199
-0.0762171435257
-0.0761765261243
-0.076145976616
-0.0761255235163
-0.0761151945417
-0.0761150168243
-0.0761250172355
-0.0761452228257
-0.0761756610496
-0.076216359912
-0.0762673482863
-0.076328656321
-0.0764003156686
-0.0764823597132
-0.076574823842
-0.0766777457614
-0.0767911657267
-0.0769151267306
-0.0770496747428
-0.0771948590226
-0.0773507323262
-0.0775173510206
-0.0776947753617
-0.0778830697965
-0.0780823031408
-0.0782925486704
-0.0785138843111
-0.0787463928962
-0.0789901623704
-0.0792452859273
-0.0795118621242
-0.0797899950955
-0.0800797947698
-0.0803813769986
-0.0806948636461
-0.0810203827834
-0.0813580688711
-0.0817080629168
-0.0820705125695
-0.0824455722457
-0.0828334032967
-0.0832341741762
-0.0836480605871
-0.0840752455865
-0.0845159197013
-0.0849702811011
-0.0854385357723
-0.085920897639
-0.0864175886727
-0.0869288390344
-0.0874548872446
-0.0879959803284
-0.0885523739542
-0.0891243325844
-0.0897121296356
-0.090316047652
-0.0909363784277
-0.0915734231837
-0.0922274927462
-0.0928989077089
-0.0935879985961
-0.0942951060394
-0.0950205809784
-0.0957647848302
-0.0965280896809
-0.0973108784776
-0.0981135452482
-0.0989364952801
-0.0997801453518
-0.100644923965
-0.101531271544
-0.102439640663
-0.103370496274
-0.10432431594
-0.105300801488
-0.106298266162
-0.107315652254
-0.108353150173
-0.10941096769
-0.110489309476
-0.111588377072
-0.112708367915
-0.113849475583
-0.115011888824
-0.116195791597
-0.11740136232
-0.118628774482
-0.119878194866
-0.12114978475
-0.122443696137
-0.123760062097
-0.125099019808
-0.126460751018
-0.127845352604
-0.1292529399
-0.130683624794
-0.132137512321
-0.13361470077
-0.135115282635
-0.136639344785
-0.138186969373
-0.139758234934
-0.141353217596
-0.142971992617
-0.144614636037
-0.146281226847
-0.147971849282
-0.149686595577
-0.151425569469
-0.153188889729
-0.154976694338
-0.156789145203
-0.158626433695
-0.160488786623
-0.162376473085
-0.164289812089
-0.166229181024
-0.168195025027
-0.170187867566
-0.172208321766
-0.174257103133
-0.17633504358
-0.178443106489
-0.18058240361
-0.182754212843
-0.1849599985
-0.187201433621
-0.18948041377
-0.191799083245
-0.19415987798
-0.196565546728
-0.199019165583
-0.201524183616
-0.204084450928
-0.206704251475
-0.209388340153
-0.212141977669
-0.214970967678
-0.217881695833
-0.220881161162
-0.223977018427
-0.227177608292
-0.230492009731
-0.233930032715
-0.23750226784
-0.241220103786
-0.245095740113
-0.249142192619
-0.253373288914
-0.257803653915
-0.262448674781
-0.267324450197
-0.27244774032
-0.277835873209
-0.283506633882
-0.28947812867
-0.295768620109
-0.302394080749
-0.309301131374
-0.31640115209
-0.323667404396
-0.331103778152
-0.33871425429
-0.346502907061
-0.354473906083
-0.362631518715
-0.370980112212
-0.379524156161
-0.388268225133
-0.0997106174667
-0.0995862795469
-0.0994765933893
-0.0993768728653
-0.0992902082079
-0.0992156144431
-0.0991538146276
-0.0991049123553
-0.0990691889421
-0.0990468746253
-0.0990382067943
-0.099043417481
-0.099062735787
-0.0990963875836
-0.0991445958415
-0.0992075807904
-0.0992855600565
-0.0993787489877
-0.0994873608901
-0.0996116071561
-0.0997516976392
-0.0999078409978
-0.100080244934
-0.100269116563
-0.100474662703
-0.100697090124
-0.100936606061
-0.101193418574
-0.101467736884
-0.101759771755
-0.10206973588
-0.102397844288
-0.102744314768
-0.103109368279
-0.103493229305
-0.103896126278
-0.10431829201
-0.104759964083
-0.105221385299
-0.105702804147
-0.106204475073
-0.10672665889
-0.107269623282
-0.107833643209
-0.108419001266
-0.109025988167
-0.109654903084
-0.110306054007
-0.110979758143
-0.111676342368
-0.112396143629
-0.113139509255
-0.113906797278
-0.1146983769
-0.115514628999
-0.116355946377
-0.117222734037
-0.118115409622
-0.119034403861
-0.119980160903
-0.120953138641
-0.121953809053
-0.122982658635
-0.124040188793
-0.125126916177
-0.126243372995
-0.127390107425
-0.128567684054
-0.129776684221
-0.131017706341
-0.132291366294
-0.133598297856
-0.134939153112
-0.136314602808
-0.137725336738
-0.139172064178
-0.140655514323
-0.14217643672
-0.143735601654
-0.145333800584
-0.146971846585
-0.148650574832
-0.150370843051
-0.152133531982
-0.153939545878
-0.155789813
-0.157685286101
-0.159626942951
-0.161615786866
-0.163652847245
-0.165739180118
-0.167875868701
-0.170064023986
-0.172304785338
-0.174599321082
-0.176948829125
-0.179354537602
-0.181817705499
-0.184339623347
-0.186921613918
-0.189565032902
-0.192271269615
-0.195041747738
-0.197877926059
-0.200781299242
-0.203752610031
-0.206791236939
-0.209897212426
-0.213071842573
-0.216316476923
-0.219632488742
-0.223021275284
-0.226484257791
-0.230022882119
-0.233638618848
-0.237332963542
-0.241107437243
-0.244963587076
-0.248902986152
-0.252927236281
-0.257037972838
-0.26123680317
-0.265525368495
-0.269905573614
-0.274379019384
-0.27894749216
-0.283612798594
-0.288376775479
-0.293241292951
-0.298208256047
-0.303279606925
-0.308457326338
-0.313743435777
-0.319139999816
-0.324649128547
-0.330272980552
-0.336013765916
-0.341873749827
-0.347855256663
-0.353960674299
-0.360192459138
-0.366553141453
-0.373045331503
-0.379671726084
-0.386435116178
-0.39333839494
-0.40038456687
-0.407576757584
-0.414918224911
-0.422412370567
-0.43006275343
-0.437873103636
-0.445847338145
-0.453989577732
-0.46230416512
-0.470795684998
-0.479468985161
-0.488329199461
-0.497381769768
-0.506632473601
-0.51608745727
-0.525753263739
-0.535636859953
-0.545745673113
-0.556087624733
-0.566671166321
-0.577505317213
-0.588599702713
-0.599964593439
-0.611610945
-0.623550436387
-0.635795510094
-0.648359409609
-0.661256218419
-0.674500883109
-0.688109247037
-0.702098073645
-0.716485063126
-0.731288860506
-0.746529054337
-0.762226163536
-0.778401608655
-0.795077668033
-0.812277420189
-0.830024659756
-0.848343790418
-0.867259692226
-0.886797560085
-0.906980461053
-0.927762276626
-0.949061817483
-0.970859949672
-0.993168345568
-1.01599895085
-1.03936399088
-1.06327597725
-1.0877477145
-1.11279230696
-1.13842316576
-1.1646540172
-0.117207041129
-0.117281328741
-0.117375091916
-0.117482929814
-0.117608425044
-0.117750517486
-0.117910095002
-0.118087342527
-0.118282650223
-0.118496353559
-0.118728799191
-0.118980331023
-0.119251292708
-0.119542027715
-0.119852879475
-0.120184191653
-0.120536308429
-0.120909574772
-0.121304336836
-0.121720942221
-0.122159740279
-0.122621082577
-0.123105323261
-0.123612819481
-0.124143931772
-0.124699024433
-0.125278466032
-0.125882629964
-0.126511894862
-0.127166644997
-0.127847270831
-0.128554169549
-0.12928774555
-0.130048410901
-0.130836585885
-0.131652699516
-0.132497190127
-0.133370505849
-0.134273105109
-0.135205457259
-0.136168043054
-0.137161355077
-0.138185898408
-0.139242191223
-0.14033076523
-0.141452166219
-0.142606954654
-0.143795706206
-0.145019012259
-0.146277480379
-0.147571734969
-0.148902417823
-0.150270188581
-0.151675725261
-0.153119724939
-0.154602904251
-0.156125999848
-0.157689768956
-0.159294989995
-0.160942463127
-0.1626330108
-0.164367478309
-0.166146734333
-0.167971671559
-0.169843207256
-0.171762283824
-0.173729869374
-0.175746958399
-0.177814572356
-0.179933760246
-0.182105599227
-0.184331195286
-0.186611683886
-0.188948230599
-0.191342031745
-0.193794315111
-0.196306340663
-0.198879401239
-0.201514823239
-0.204213967337
-0.206978229254
-0.209809040522
-0.212707869268
-0.215676221019
-0.218715639503
-0.221827707484
-0.225014047608
-0.228276323281
-0.231616239557
-0.235035544047
-0.238536027833
-0.242119526447
-0.245787920849
-0.249543138421
-0.253387153983
-0.257321990836
-0.261349721838
-0.265472470504
-0.269692412151
-0.274011775048
-0.278432841578
-0.282957949442
-0.287589492904
-0.292329924061
-0.297181754137
-0.302146766216
-0.307225403474
-0.312418787952
-0.317729340804
-0.323159552746
-0.328711964925
-0.33438916958
-0.340193811266
-0.346128587396
-0.352196249559
-0.358399604281
-0.364741514274
-0.371224899
-0.37785273676
-0.384628064769
-0.391553979712
-0.398633626688
-0.405870226596
-0.413267115803
-0.420827620567
-0.428555160741
-0.436453229709
-0.444525393484
-0.452775292405
-0.461206643221
-0.469823242091
-0.478628967265
-0.487627782123
-0.496823738478
-0.506220980137
-0.515823746908
-0.525636378815
-0.535663320884
-0.5459091283
-0.556378471871
-0.567076144168
-0.578007066388
-0.589176295617
-0.6005890328
-0.612250631528
-0.624166607604
-0.636342649436
-0.648784629384
-0.661498616162
-0.674490888224
-0.687767948377
-0.701336539668
-0.715203662465
-0.729376592923
-0.743862903028
-0.758670482098
-0.773807559821
-0.789282730733
-0.805104980039
-0.821283712457
-0.837828783881
-0.854750532668
-0.872059811857
-0.889768025069
-0.907887163186
-0.926429842547
-0.945409344677
-0.964839656902
-0.984735513902
-1.00511243972
-1.02598678928
-1.04737579026
-1.0692975833
-1.09177126056
-1.11481689838
-1.13845558939
-1.162709469
-1.1876017347
-1.21315665755
-1.23939958358
-1.26635692355
-1.29405612848
-1.3225256496
-1.35179488132
-1.38189408169
-1.41285426924
-1.4447070938
-1.47748467857
-1.51121718113
-1.54586573936
-1.58135659022
-1.61767819993
-1.6548500189
-1.69289195289
-1.7318243737
-1.77166813007
-1.81244455879
-1.85417549622
-1.89688328986
-1.94059081241
-0.134668495338
-0.134941538379
-0.135238872341
-0.13555437648
-0.135892138812
-0.136251016413
-0.136632065183
-0.137035550316
-0.137461971025
-0.137911767853
-0.138385396456
-0.138883312356
-0.139405973664
-0.139953841113
-0.140527378379
-0.141127052305
-0.141753333327
-0.142406695848
-0.143087618586
-0.143796584963
-0.144534083619
-0.145300608821
-0.146096660868
-0.146922746654
-0.147779380216
-0.148667083138
-0.149586385092
-0.150537824501
-0.151521949126
-0.152539316587
-0.153590494879
-0.154676063053
-0.155796611828
-0.156952744216
-0.158145076122
-0.159374236892
-0.16064087005
-0.16194563407
-0.163289202853
-0.164672266325
-0.166095531224
-0.167559721766
-0.169065580269
-0.170613867809
-0.172205364919
-0.173840872301
-0.175521211526
-0.177247225633
-0.179019779836
-0.180839762252
-0.182708084544
-0.184625682689
-0.186593517613
-0.188612575903
-0.190683870602
-0.192808441935
-0.194987357875
-0.197221714923
-0.199512638929
-0.201861285813
-0.204268842276
-0.206736526558
-0.209265589228
-0.211857313954
-0.214513018304
-0.217234054513
-0.220021810289
-0.222877709649
-0.225803213818
-0.228799822025
-0.231869072316
-0.235012542471
-0.238231850925
-0.241528657671
-0.244904665147
-0.248361619206
-0.25190131012
-0.255525573557
-0.259236291549
-0.263035393505
-0.266924857274
-0.270906710239
-0.274983030421
-0.279155947569
-0.283427644329
-0.287800357393
-0.292276378713
-0.29685805673
-0.301547797604
-0.306348066502
-0.311261388921
-0.316290352033
-0.321437606079
-0.326705865743
-0.332097911606
-0.337616591612
-0.343264822585
-0.349045591796
-0.354961958532
-0.361017055718
-0.367214091576
-0.373556351323
-0.38004719892
-0.386690078861
-0.39348851798
-0.400445338717
-0.407562047924
-0.414840856205
-0.422285298766
-0.429899006406
-0.437685686966
-0.445649126761
-0.453793192296
-0.462121831566
-0.470639075869
-0.479349041432
-0.488255931059
-0.497364035839
-0.506677737432
-0.516201508967
-0.525939916754
-0.535897620931
-0.546079386324
-0.55649008999
-0.567134693842
-0.578018268613
-0.589145995666
-0.600523168735
-0.612155196516
-0.624047605815
-0.636206045093
-0.648636288241
-0.661344238628
-0.674335933403
-0.687617548169
-0.701195402004
-0.715075962875
-0.729265853492
-0.743771857592
-0.758600926685
-0.773760187467
-0.789256949777
-0.805098715145
-0.821293186219
-0.837848276809
-0.854772122745
-0.872073093803
-0.889759806418
-0.907841137545
-0.92632623957
-0.945224556509
-0.964545841352
-0.984300174809
-1.00449798546
-1.02515007146
-1.04626762367
-1.06786225056
-1.08994600454
-1.11253141024
-1.13563149484
-1.15925982062
-1.18343051864
-1.20815832385
-1.2334586125
-1.25934744103
-1.28584158657
-1.31295858876
-1.3407167927
-1.36913539292
-1.39823447754
-1.42803507267
-1.45855918636
-1.48982985123
-1.52187116523
-1.55470832863
-1.58836767807
-1.62287671548
-1.65826413053
-1.69455981481
-1.73179486639
-1.77000158258
-1.8092134391
-1.84946505322
-1.89079212929
-1.93323138278
-1.97682044077
-2.02159771642
-2.06760225449
-2.11487129623
-2.16337322893
-2.21304170868
-2.26387279447
-2.31589370726
-2.36913230528
-2.42361709889
-2.47937726589
-2.53644266718
-2.59484386264
-2.65461212762
-2.71577947237
-0.15208830446
-0.152560157459
-0.153061104305
-0.15358430348
-0.154134359105
-0.15471003808
-0.155312567276
-0.155942291121
-0.156599817822
-0.157285692853
-0.158000480727
-0.158744748303
-0.159519067854
-0.160324017155
-0.161160179775
-0.16202814553
-0.162928510801
-0.163861879051
-0.164828861351
-0.165830076722
-0.166866152655
-0.167937725768
-0.16904544226
-0.17018995848
-0.171371941617
-0.17259207021
-0.173851034762
-0.175149538474
-0.17648829794
-0.177868043748
-0.179289521122
-0.180753490694
-0.182260729222
-0.183812030272
-0.185408205028
-0.187050082986
-0.188738512608
-0.190474362228
-0.192258520863
-0.194091898867
-0.195975428698
-0.197910065729
-0.1998967891
-0.201936602569
-0.204030535232
-0.206179642349
-0.208385006194
-0.210647736839
-0.212968973017
-0.215349883002
-0.217791665389
-0.220295549926
-0.22286279847
-0.225494705809
-0.228192600585
-0.230957846155
-0.233791841438
-0.236696021806
-0.239671860108
-0.2427208676
-0.245844594776
-0.249044632378
-0.252322612407
-0.255680209058
-0.259119139685
-0.262641165849
-0.266248094344
-0.26994177825
-0.273724117998
-0.277597062454
-0.281562610003
-0.285622809664
-0.289779762258
-0.294035621563
-0.298392595519
-0.302852947422
-0.3074189972
-0.31209312266
-0.316877760771
-0.321775408967
-0.326788626511
-0.331920035895
-0.33717232424
-0.342548244759
-0.348050618197
-0.353682334364
-0.359446353673
-0.365345708703
-0.37138350583
-0.377562926867
-0.383887230789
-0.39035975546
-0.396983919388
-0.40376322355
-0.410701253245
-0.417801680007
-0.425068263547
-0.432504853753
-0.440115392723
-0.447903916865
-0.455874559038
-0.464031550744
-0.472379224374
-0.480922015508
-0.489664465247
-0.49861043403
-0.507762490976
-0.517123933818
-0.52669941032
-0.536493689858
-0.546511645461
-0.556758255957
-0.56723860811
-0.577957898848
-0.588921437518
-0.600134648241
-0.611603072298
-0.623332370664
-0.635328326521
-0.647596847773
-0.660143969649
-0.672975857918
-0.68609881458
-0.699519281188
-0.713243834694
-0.72727919534
-0.741632231193
-0.756309961816
-0.771319562098
-0.78666836641
-0.80236387306
-0.818413749054
-0.834825835125
-0.85160815111
-0.86876890166
-0.886316482353
-0.904259486221
-0.922606710716
-0.941367165166
-0.960550078751
-0.980164909073
-1.00022135138
-1.02072934846
-1.04169910126
-1.0631410803
-1.085066038
-1.10748502184
-1.13040938862
-1.15385081978
-1.17782133778
-1.20233332386
-1.22739953687
-1.25303313375
-1.27924769131
-1.30605722942
-1.33347623619
-1.36151969435
-1.39020310972
-1.41954254128
-1.44955463334
-1.48025664968
-1.51166650923
-1.54380282356
-1.57668493621
-1.61033296376
-1.64476783846
-1.68001135237
-1.71608620253
-1.75301603718
-1.79082550249
-1.82954028929
-1.86918717941
-1.90979409094
-1.95139012135
-1.9940055878
-2.03767206363
-2.08242241011
-2.12829080154
-2.17531274251
-2.2235250754
-2.27296597634
-2.32367493747
-2.37569273353
-2.42906137028
-2.48382401196
-2.54002488536
-2.59770915778
-2.65692278633
-2.71771008625
-2.7800466845
-2.84387364623
-2.90919461299
-2.97604456579
-3.04445930452
-3.11447546719
-3.18613054942
-3.25946292462
-3.33451186453
-3.41131756018
-3.48992114709
-0.169459832406
-0.170130473529
-0.170834996251
-0.17156583936
-0.172328132492
-0.173120545655
-0.173944478996
-0.174800355267
-0.175688891626
-0.176610738147
-0.177566568
-0.178557059079
-0.179582897557
-0.180644777961
-0.18174340347
-0.18287948645
-0.184053748997
-0.185266923316
-0.186519752379
-0.187812990441
-0.189147403571
-0.190523770389
-0.191942882657
-0.193405545834
-0.194912579829
-0.196464819769
-0.198063116661
-0.199708338107
-0.201401369133
-0.203143112971
-0.204934491737
-0.206776447228
-0.208669941844
-0.21061595938
-0.212615505914
-0.214669610597
-0.216779326449
-0.218945731377
-0.221169929129
-0.223453050019
-0.225796251778
-0.228200720599
-0.230667672082
-0.233198352176
-0.235794038063
-0.238456039114
-0.241185697923
-0.2439843912
-0.246853530697
-0.249794564318
-0.252808977133
-0.255898292284
-0.259064072017
-0.262307918784
-0.265631476282
-0.269036430534
-0.272524510875
-0.276097491011
-0.279757190213
-0.283505474471
-0.28734425755
-0.291275502099
-0.2953012209
-0.299423478037
-0.303644390046
-0.307966127153
-0.312390914564
-0.316921033716
-0.321558823568
-0.326306681903
-0.331167066685
-0.33614249741
-0.341235556506
-0.346448890771
-0.351785212803
-0.357247302499
-0.362838008573
-0.368560250106
-0.374417018099
-0.380411377088
-0.386546466789
-0.392825503816
-0.399251783414
-0.405828681209
-0.412559655018
-0.419448246683
-0.426498083948
-0.43371288241
-0.441096447491
-0.44865267648
-0.456385560609
-0.464299187147
-0.472397741601
-0.480685509918
-0.489166880787
-0.497846347944
-0.506728512561
-0.515818085676
-0.525119890714
-0.534638866047
-0.544380067611
-0.554348671593
-0.56454997716
-0.574989409288
-0.585672521635
-0.596604210873
-0.607788106566
-0.619228591708
-0.63093142472
-0.642902511599
-0.655147888608
-0.667673724992
-0.680486325779
-0.693592134616
-0.706997736724
-0.720709861905
-0.73473538767
-0.749081342466
-0.763754908918
-0.778763427258
-0.794114398872
-0.809815490318
-0.825874537946
-0.842299551566
-0.859098716563
-0.876280399082
-0.893853151083
-0.911825715154
-0.930207029437
-0.949006232774
-0.968232670134
-0.987895898359
-1.00800569222
-1.0285720508
-1.0496052043
-1.07111562119
-1.0931140159
-1.11561135686
-1.13861887514
-1.16214807361
-1.18621073679
-1.21081894118
-1.2359850666
-1.26172180792
-1.28804218804
-1.31495957132
-1.34248767835
-1.37064060158
-1.39943282203
-1.42887922728
-1.45899513064
-1.48979629167
-1.52129893823
-1.55351978975
-1.58647608245
-1.62018559586
-1.65466668124
-1.68993829178
-1.72602001456
-1.76293210462
-1.80069552074
-1.83933196332
-1.87886391377
-1.9193146761
-1.96070841994
-2.00307022554
-2.04642612993
-2.09080317453
-2.13622945363
-2.18273416344
-2.23034765138
-2.27910146479
-2.32902839873
-2.38016254171
-2.43253931885
-2.48619553108
-2.54116938958
-2.5975005438
-2.65523010157
-2.71440063962
-2.7750562027
-2.83724228895
-2.90100581975
-2.96639509124
-3.03345970531
-3.10225047698
-3.17281931606
-3.24521907983
-3.31950114543
-3.39564836677
-3.47360920524
-3.55339487171
-3.63504809378
-3.71861259927
-3.80413313959
-3.8916555138
-3.98122659307
-4.07289434577
-4.16670786318
-4.26271739022
-0.186776484284
-0.187645814162
-0.188553796132
-0.18949215165
-0.190466543934
-0.191475539868
-0.192520714914
-0.193602569302
-0.194721928972
-0.195879548277
-0.19707620876
-0.198312699113
-0.199589818988
-0.200908379279
-0.20226920247
-0.203673123215
-0.20512098885
-0.206613659949
-0.208152011002
-0.20973693113
-0.21136932464
-0.213050111676
-0.214780229087
-0.216560631117
-0.218392290093
-0.22027619723
-0.222213363538
-0.224204820681
-0.226251621721
-0.228354841988
-0.230515579994
-0.23273495839
-0.235014124835
-0.237354252859
-0.23975654285
-0.242222223199
-0.244752551137
-0.247348813629
-0.250012328559
-0.252744445726
-0.255546547759
-0.258420051165
-0.261366407456
-0.264387104236
-0.267483666269
-0.270657656531
-0.273910677353
-0.27724437149
-0.280660423209
-0.284160559499
-0.287746551284
-0.291420214484
-0.295183411155
-0.299038050784
-0.302986091523
-0.307029541382
-0.311170459431
-0.315410957037
-0.319753199228
-0.324199406044
-0.328751853763
-0.333412876206
-0.338184866172
-0.343070276863
-0.348071623209
-0.353191483286
-0.358432499847
-0.363797381852
-0.369288905923
-0.374909917874
-0.380663334308
-0.386552144254
-0.392579410814
-0.3987482728
-0.405061946455
-0.411523727223
-0.418136991546
-0.424905198687
-0.43183189257
-0.438920703674
-0.446175350993
-0.453599644068
-0.461197485028
-0.468972870664
-0.476929894544
-0.485072749194
-0.493405728338
-0.501933229197
-0.510659754822
-0.519589916507
-0.528728436204
-0.538080149065
-0.547650006008
-0.557443076359
-0.567464550521
-0.577719742727
-0.588214093846
-0.598953174299
-0.609942687009
-0.621188470448
-0.632696501706
-0.64447289967
-0.656523928268
-0.668855999822
-0.681475678434
-0.694388894845
-0.707600336825
-0.721115470335
-0.734941162126
-0.749084452455
-0.763552538372
-0.778352777063
-0.793492689237
-0.808979962646
-0.824822455695
-0.841028201163
-0.857605409995
-0.874562475245
-0.891907976089
-0.909650682017
-0.927799557221
-0.946363765235
-0.965352673783
-0.984775859376
-1.00464311166
-1.02496443876
-1.04575007288
-1.06701047603
-1.08875634592
-1.11099862205
-1.13374849217
-1.15701739895
-1.18081704711
-1.2051594108
-1.23005674147
-1.25552157612
-1.28156674605
-1.30820538606
-1.33545094426
-1.36331719242
-1.39181823699
-1.42096853073
-1.45078288524
-1.48127648415
-1.51246489716
-1.54436409515
-1.57699046614
-1.61036083236
-1.6444924685
-1.67940312116
-1.71511102952
-1.75163494751
-1.78899416727
-1.82720854438
-1.86629852442
-1.90628517142
-1.94719019804
-1.9890359975
-2.03184567747
-2.07564309589
-2.12045289878
-2.16630055987
-2.21321242234
-2.26121574214
-2.31033873348
-2.36061061573
-2.41206166188
-2.4647232485
-2.51862790647
-2.57380937242
-2.63030264039
-2.68814401309
-2.74737115221
-2.80802312682
-2.8701404591
-2.93376516645
-2.99894079856
-3.06571246836
-3.13412687501
-3.20423231748
-3.27607869658
-3.34971750372
-3.42520179374
-3.50258613985
-3.58192656787
-3.66328046707
-3.74670647536
-3.83226433569
-3.92001247192
-4.00994094966
-4.1020056107
-4.19622521922
-4.29265023292
-4.39133229062
-4.49232423999
-4.5956801658
-4.7014554189
-4.80970664588
-4.92049181931
-5.03387027411
-0.204031708204
-0.205099549524
-0.206210793954
-0.207356449142
-0.208542718958
-0.209768061554
-0.211034229307
-0.212341799026
-0.213691705241
-0.215084806287
-0.216521991602
-0.218004160385
-0.219532225506
-0.221107113821
-0.22272976667
-0.224401140502
-0.226122207541
-0.227893956385
-0.229717392658
-0.231593539792
-0.233523439826
-0.235508154128
-0.237548764165
-0.239646372404
-0.24180210314
-0.244017103311
-0.246292543468
-0.24862961872
-0.251029549666
-0.253493583353
-0.256022994245
-0.258619085157
-0.261283188416
-0.264016666889
-0.266820914921
-0.269697359476
-0.272647461312
-0.275672716015
-0.278774655118
-0.281954847287
-0.285214899385
-0.288556457661
-0.29198120899
-0.295490882068
-0.299087248599
-0.302772124488
-0.306547371134
-0.31041489672
-0.314376657387
-0.318434658534
-0.322590956198
-0.326847658348
-0.331206926167
-0.33567097546
-0.340242078052
-0.344922563165
-0.349714818811
-0.354621293237
-0.359644496409
-0.364787001532
-0.370051446531
-0.375440535543
-0.380957040493
-0.38660380274
-0.39238373465
-0.398299821211
-0.404355121742
-0.410552771657
-0.416895984192
-0.423388052146
-0.430032349685
-0.436832334251
-0.443791548432
-0.450913621891
-0.458202273313
-0.465661312453
-0.473294642214
-0.481106260736
-0.489100263519
-0.497280845616
-0.505652303915
-0.514219039458
-0.522985559793
-0.531956481344
-0.541136531884
-0.550530553045
-0.560143502922
-0.569980458702
-0.580046619364
-0.59034730843
-0.600887976806
-0.611674205701
-0.622711709589
-0.634006339226
-0.645564084759
-0.657391078887
-0.669493600126
-0.681878076161
-0.69455108726
-0.707519369753
-0.72078981961
-0.734369496079
-0.748265625478
-0.76248560503
-0.777037006793
-0.791926792984
-0.807160706928
-0.822745294862
-0.838688529118
-0.85499858141
-0.871683806701
-0.88875274713
-0.906214136063
-0.924076902267
-0.942350174176
-0.961043284296
-0.980165773698
-0.999727396633
-1.01973812533
-1.04020815493
-1.06114790863
-1.08256804303
-1.10447945357
-1.12689328007
-1.14982091229
-1.17327399603
-1.19726443947
-1.22180441972
-1.24690638963
-1.27258308489
-1.29884753139
-1.32571305294
-1.35319327933
-1.38130215487
-1.41005394717
-1.43946325656
-1.4695450259
-1.50031455095
-1.53178749129
-1.56397988187
-1.59690814524
-1.63058910447
-1.66503999686
-1.70027848845
-1.73632268947
-1.77319117068
-1.81090298083
-1.84947766512
-1.88893528488
-1.92929643853
-1.97058228378
-2.01281456135
-2.05601562009
-2.1002084437
-2.14541667914
-2.19166466673
-2.23897747202
-2.2873809196
-2.33690162883
-2.38756705152
-2.43940551155
-2.49244624665
-2.54671945188
-2.60225632536
-2.65908911563
-2.71725117074
-2.77677698911
-2.83770227152
-2.90006397422
-2.96390036285
-3.0292510664
-3.09615713101
-3.16466107277
-3.23480692876
-3.30664030545
-3.38020842353
-3.45556015783
-3.53274607097
-3.61181843938
-3.69283126982
-3.77584030452
-3.860903013
-3.94807856815
-4.03742780441
-4.12901315534
-4.22289856797
-4.31914939139
-4.41783223687
-4.5190125573
-4.62268761177
-4.72882060395
-4.8374378323
-4.9485974651
-5.06235903239
-5.17878345765
-5.29793309055
-5.41987174027
-5.54466470973
-5.6723788305
-5.80308250464
-0.221218997005
-0.222485094003
-0.223799323432
-0.225151983954
-0.226549826045
-0.227991193955
-0.229478018213
-0.23101095166
-0.23259103691
-0.234219235942
-0.235896545708
-0.23762397544
-0.239402550823
-0.241233314255
-0.243117325504
-0.245055662459
-0.24704942175
-0.249099719436
-0.251207691804
-0.253374496207
-0.255601311953
-0.257889341052
-0.260239809086
-0.262653966284
-0.265133088387
-0.267678477481
-0.270291463063
-0.272973403245
-0.275725685669
-0.27854972846
-0.281446981363
-0.2844189269
-0.287467081508
-0.290592996717
-0.293798260208
-0.297084496982
-0.300453370694
-0.303906584891
-0.307445884162
-0.311073055349
-0.314789928888
-0.3185983801
-0.322500330527
-0.326497749227
-0.330592654129
-0.334787113392
-0.339083246776
-0.343483227062
-0.347989281456
-0.352603693019
-0.35732880214
-0.362167008
-0.367120770033
-0.372192609479
-0.377385110989
-0.382700924139
-0.388142764968
-0.393713417623
-0.399415736051
-0.405252645675
-0.411227145056
-0.417342307577
-0.423601283249
-0.430007300528
-0.43656366812
-0.443273776779
-0.450141101241
-0.45716920219
-0.464361728259
-0.471722417986
-0.479255101848
-0.486963704375
-0.494852246311
-0.502924846782
-0.511185725536
-0.51963920521
-0.52828971369
-0.537141786466
-0.546200069068
-0.555469319556
-0.564954411097
-0.574660334567
-0.584592201195
-0.594755245299
-0.605154827074
-0.615796435448
-0.626685691007
-0.637828348967
-0.649230302245
-0.660897584589
-0.672836373808
-0.685052995048
-0.69755392415
-0.710345791081
-0.723435383441
-0.736829650064
-0.750535704737
-0.764560829966
-0.778912480841
-0.793598288989
-0.808626066604
-0.824003810633
-0.839739707025
-0.85584213509
-0.872319671926
-0.889180308255
-0.906430839905
-0.924078890283
-0.94213353415
-0.960604071414
-0.979500011593
-0.99883107837
-1.01860721428
-1.03883858554
-1.05953558696
-1.08070884702
-1.10236923306
-1.12452785661
-1.1471960789
-1.17038551659
-1.19410804762
-1.21837581725
-1.24320124433
-1.26859702762
-1.2945761524
-1.32115189731
-1.3483378416
-1.37614787249
-1.40459619292
-1.43369732951
-1.463466141
-1.49391782686
-1.52506793644
-1.55693237841
-1.58952743076
-1.62286975115
-1.65697638787
-1.69186479135
-1.72755282623
-1.76405878408
-1.80140139685
-1.83959985102
-1.8786738025
-1.9186433926
-1.95952926466
-2.00135258181
-2.04413504579
-2.08789891682
-2.13266703483
-2.17846284173
-2.22531040532
-2.27323444443
-2.3222603557
-2.37241424192
-2.42372294212
-2.47621406334
-2.52991601431
-2.58485804104
-2.64107026436
-2.6985837194
-2.7574303973
-2.8176432887
-2.87925642956
-2.94230494857
-3.0068251169
-3.07285439935
-3.14043150742
-3.2095964535
-3.28039060644
-3.35285674767
-3.42703912766
-3.5029835222
-3.58073728766
-3.66034941469
-3.74187057932
-3.82535319042
-3.91085143235
-3.99842130167
-4.08812063584
-4.1800091328
-4.27414835921
-4.37060174531
-4.46943456423
-4.57071389343
-4.6745085556
-4.78088903641
-4.88992737668
-5.00169703596
-5.11627047574
-5.23365212771
-5.35381253597
-5.47678551132
-5.6026369103
-5.73143413108
-5.86324614956
-5.99814355621
-6.13619859402
-6.27748519701
-6.42207903003
-6.57005753585
-0.238331890369
-0.239795908735
-0.241312765018
-0.242872054478
-0.244481079381
-0.246138065792
-0.247845122898
-0.249602979017
-0.251412784563
-0.253275604736
-0.255192543537
-0.25716471975
-0.259193271376
-0.261279355967
-0.263424151238
-0.265628855894
-0.267894690449
-0.270222898041
-0.272614745161
-0.275071522473
-0.27759454592
-0.28018515772
-0.282844727134
-0.28557465145
-0.288376357167
-0.29125130103
-0.294200971036
-0.297226887559
-0.300330604567
-0.303513710721
-0.30677783052
-0.310124625523
-0.313555795564
-0.317073080099
-0.320678259512
-0.324373156257
-0.328159636176
-0.33203960996
-0.336015034517
-0.340087914265
-0.344260302454
-0.348534302659
-0.352912070262
-0.357395813916
-0.361987796981
-0.366690339044
-0.371505817396
-0.376436668563
-0.381485389916
-0.386654541277
-0.391946746496
-0.397364695021
-0.402911143558
-0.408588917841
-0.414400914342