/*--------------------------------*- C++ -*----------------------------------*\
| =========                 |                                                 |
| \\      /  F ield         | OpenFOAM: The Open Source CFD Toolbox           |
|  \\    /   O peration     | Version:  2412                                  |
|   \\  /    A nd           | Website:  www.openfoam.com                      |
|    \\/     M anipulation  |                                                 |
\*---------------------------------------------------------------------------*/
FoamFile
{
    version     2.0;
    format      ascii;
    arch        "LSB;label=32;scalar=64";
    class       volScalarField;
    location    "1";
    object      p_rgh;
}
// * * * * * * * * * * * * * * * * * * * * * * * * * * * * * * * * * * * * * //

dimensions      [1 -1 -2 0 0 0 0];

internalField   nonuniform List<scalar> 
64000
(
-0.0167410110859
-0.0163287688369
-0.0159242563463
-0.0155234370166
-0.0151288816856
-0.0147396188467
-0.0143561581458
-0.0139784668286
-0.0136066624517
-0.0132408134461
-0.0128809900783
-0.0125272533186
-0.0121796569455
-0.0118382472457
-0.0115030632813
-0.0111741368318
-0.0108514924785
-0.0105351478678
-0.0102251137889
-0.0099213942398
-0.0096239866573
-0.00933288212923
-0.00904806560248
-0.00876951606132
-0.0084972066059
-0.00823110471888
-0.00797117257234
-0.00771736719143
-0.00746964074001
-0.00722794080074
-0.00699221051045
-0.00676238882711
-0.00653841084442
-0.00632020798825
-0.00610770827073
-0.00590083655606
-0.00569951471587
-0.00550366189773
-0.00531319490156
-0.00512802835856
-0.00494807480033
-0.0047732449303
-0.00460344795493
-0.0044385917586
-0.0042785830531
-0.00412332759838
-0.00397273042677
-0.00382669601968
-0.00368512841857
-0.00354793138511
-0.00341500864332
-0.00328626400594
-0.00316160141336
-0.00304092511797
-0.00292413992133
-0.00281115124951
-0.0027018651637
-0.00259618846299
-0.00249402884554
-0.00239529502457
-0.00229989676005
-0.00220774488588
-0.00211875141705
-0.00203282966481
-0.00194989425712
-0.00186986113241
-0.00179264760459
-0.0017181724511
-0.00164635594047
-0.00157711981888
-0.00151038731258
-0.00144608316545
-0.00138413368779
-0.00132446677012
-0.00126701185331
-0.00121169991228
-0.00115846348875
-0.00110723672135
-0.00105795532269
-0.00101055653829
-0.000964979139076
-0.00092116343216
-0.000879051249329
-0.000838585918625
-0.000799712249535
-0.000762376528678
-0.000726526499362
-0.000692111327859
-0.000659081582541
-0.000627389225241
-0.00059698758655
-0.000567831327765
-0.000539876420058
-0.000513080133354
-0.000487401004512
-0.000462798800977
-0.000439234505489
-0.000416670293948
-0.000395069498936
-0.000374396595658
-0.00035461719071
-0.000335697979402
-0.000317606711305
-0.000300312172172
-0.000283784136262
-0.000267997061881
-0.000252931611248
-0.000238564875189
-0.000224869648907
-0.000211819531752
-0.00019938891423
-0.000187553319026
-0.000176288800073
-0.000165572547095
-0.000155382288815
-0.000145696690467
-0.000136494937164
-0.000127757694346
-0.000119465629583
-0.000111600898047
-0.000104143630926
-9.70624832885e-05
-9.03378468896e-05
-8.40024116908e-05
-7.80117743921e-05
-7.23477242038e-05
-6.6996219693e-05
-6.1943739104e-05
-5.71770514399e-05
-5.26836705323e-05
-4.84513815125e-05
-4.44683428823e-05
-4.07231545306e-05
-3.72048414947e-05
-3.39028913015e-05
-3.08071454374e-05
-2.79078830436e-05
-2.51956919192e-05
-2.26614110599e-05
-2.02963839435e-05
-1.80923340346e-05
-1.60412400497e-05
-1.41353566551e-05
-1.23672753962e-05
-1.0729836516e-05
-9.21620079736e-06
-7.81977542194e-06
-6.53424519475e-06
-5.35352493573e-06
-4.27183181873e-06
-3.28358763942e-06
-2.38341070974e-06
-1.5661850504e-06
-8.27070103611e-07
-1.6153026989e-07
4.34628368557e-07
9.64855449497e-07
1.43049361842e-06
1.83984050861e-06
2.20636756736e-06
2.53189016267e-06
2.81323994037e-06
3.05718172126e-06
3.26578151658e-06
3.44102959549e-06
3.58588180627e-06
3.70238917583e-06
3.79307430461e-06
3.86043095081e-06
3.90523529251e-06
3.93193808047e-06
3.94281331649e-06
3.94250262754e-06
3.91851150515e-06
3.87820471148e-06
3.82473809085e-06
3.76004842338e-06
3.68550441215e-06
3.6021172836e-06
3.51037319597e-06
3.40845140596e-06
3.29695438432e-06
3.18329514664e-06
3.06680606407e-06
2.9461995975e-06
2.82081894503e-06
2.69010785188e-06
2.55347220118e-06
2.41011605467e-06
2.2557831739e-06
2.08698174298e-06
1.90407119217e-06
1.70860249949e-06
1.5021018105e-06
1.28607458454e-06
1.06200660718e-06
8.31365268683e-07
5.95604297374e-07
3.56169873614e-07
1.14143974682e-07
-0.0145472206684
-0.0141544657298
-0.0137700784514
-0.0133892255841
-0.0130148467994
-0.0126458030273
-0.0122826596266
-0.0119253588059
-0.0115740167086
-0.011228694541
-0.0108894566956
-0.0105563581681
-0.0102294468649
-0.00990876323555
-0.00959434047809
-0.00928620460988
-0.00898437449436
-0.00868886207073
-0.00839967246948
-0.00811680403491
-0.00784024858
-0.00756999162501
-0.00730601250908
-0.00704828463677
-0.0067967756363
-0.00655144750611
-0.00631225695765
-0.00607915568145
-0.00585209051671
-0.00563100370106
-0.00541583312382
-0.00520651256957
-0.00500297200005
-0.00480513780648
-0.0046129330154
-0.00442627753965
-0.00424508845011
-0.00406928019132
-0.00389876487139
-0.00373345253548
-0.0035732512689
-0.00341806740528
-0.00326780586487
-0.00312237033887
-0.00298166346963
-0.0028455871135
-0.00271404249457
-0.00258693032575
-0.00246415101205
-0.00234560486324
-0.00223119227458
-0.00212081380775
-0.00201437025856
-0.00191176290046
-0.00181289371712
-0.00171766541097
-0.00162598141058
-0.0015377460425
-0.00145286469718
-0.00137124389233
-0.00129279129869
-0.00121741579627
-0.00114502758996
-0.00107553831369
-0.00100886103389
-0.000944910241001
-0.000883601937788
-0.00082485373547
-0.000768584851333
-0.000714716074834
-0.000663169796707
-0.000613870072103
-0.0005667426433
-0.000521714915226
-0.00047871593639
-0.000437676421717
-0.000398528785937
-0.000361207136283
-0.000325647232973
-0.000291786464742
-0.000259563851257
-0.000228920041735
-0.000199797294788
-0.000172139456284
-0.00014589194693
-0.000121001745357
-9.74173569089e-05
-7.50887855262e-05
-5.39675202789e-05
-3.40065145365e-05
-1.5160146483e-05
2.61581075956e-06
1.93642004555e-05
3.51265081047e-05
4.99429032588e-05
6.38522653929e-05
7.68922067724e-05
8.90991105778e-05
0.000100508149809
0.00011115329415
0.000121067351651
0.000130282013979
0.000138827878468
0.000146734478476
0.000154030317781
0.00016073916715
0.000166878579487
0.000172469668085
0.000177537820879
0.000182107605781
0.000186202651972
0.000189845658677
0.000193058655215
0.000195862660318
0.000198277879226
0.000200323776344
0.000202018921785
0.000203380792542
0.000204426278837
0.000205169440586
0.000205617168875
0.000205831341719
0.000205867572225
0.000205546211209
0.000205020681784
0.000204288928895
0.000203359639603
0.000202243526755
0.000200951414079
0.000199494101917
0.000197881765074
0.000196124292307
0.000194231166118
0.000192211405867
0.000190073679292
0.000187826191771
0.000185476867742
0.00018303331295
0.000180502714803
0.000177891943197
0.000175207495098
0.000172455544308
0.000169641990257
0.000166772511825
0.000163852457934
0.000160886957443
0.000157880840546
0.000154838720886
0.000151764913367
0.000148663549896
0.00014553852597
0.000142393527893
0.000139232032985
0.000136057256281
0.000132872182763
0.000129679491534
0.000126481575802
0.000123280733111
0.0001200817042
0.000116890426527
0.000113708963761
0.000110537368498
0.000107377904755
0.000104231857232
0.000101100255868
9.79842678541e-05
9.48848121143e-05
9.1802835465e-05
8.87391861545e-05
8.56943616053e-05
8.26697099198e-05
7.96659406237e-05
7.66832147467e-05
7.37174939057e-05
7.07698302791e-05
6.78411491266e-05
6.49318698305e-05
6.2041994413e-05
5.91711662457e-05
5.63186085275e-05
5.34829814516e-05
5.066401289e-05
4.78632290476e-05
4.50798254718e-05
4.23121394556e-05
3.95584260998e-05
3.68168951317e-05
3.40856851304e-05
3.13627273528e-05
2.86425005161e-05
2.59202492883e-05
2.31950616941e-05
2.04672159805e-05
1.7736968226e-05
1.50045541524e-05
1.22701886699e-05
9.53406778624e-06
6.79637460004e-06
4.05728363654e-06
1.31579453611e-06
-0.0123365788026
-0.0119636196955
-0.0115996653411
-0.0112390697631
-0.0108851646872
-0.0105366332481
-0.0101941005423
-0.00985748259027
-0.00952689434591
-0.00920238962376
-0.00888402684138
-0.0085718548926
-0.00826591554647
-0.00796624329259
-0.00767286536272
-0.00738580181577
-0.00710506565321
-0.00683066291112
-0.00656259287091
-0.00630084814125
-0.00604541478015
-0.00579627254413
-0.00555339507072
-0.00531675008853
-0.00508629960179
-0.00486200003969
-0.0046438025601
-0.0044316533694
-0.00422549391157
-0.00402526104148
-0.00383088731486
-0.00364230130826
-0.00345942782639
-0.0032821881262
-0.00311050017964
-0.00294427893739
-0.00278343662969
-0.0026278829714
-0.00247752536632
-0.00233226924362
-0.00219201823386
-0.00205667428494
-0.00192613801077
-0.00180030897252
-0.00167908578386
-0.00156236631291
-0.00145004793567
-0.00134202771659
-0.00123820253142
-0.00113846919885
-0.00104272471601
-0.000950866455909
-0.000862792201556
-0.00077840028048
-0.000697589821867
-0.000620260841972
-0.000546314242559
-0.000475651942638
-0.000408177028958
-0.000343793835861
-0.000282408016696
-0.000223926598942
-0.000168258038115
-0.000115312310378
-6.5000972325e-05
-1.72371605298e-05
2.80643649235e-05
7.0987133564e-05
0.000111612938877
0.000150021864554
0.000186292268945
0.000220500733902
0.000252722048773
0.000283029234254
0.000311493551278
0.000338184474832
0.000363169671258
0.000386515015445
0.000408284631358
0.000428540917279
0.000447344549574
0.000464754485348
0.000480827977223
0.000495620595835
0.000509186254257
0.000521577234767
0.000532844214553
0.000543036286744
0.000552200985886
0.000560384325868
0.000567630833801
0.000573983566378
0.000579484129656
0.000584172718498
0.000588088155069
0.000591267919188
0.000593748183077
0.000595563835447
0.000596748493514
0.000597334537782
0.000597353160875
0.000596834399315
0.000595807160655
0.000594299248001
0.000592337393896
0.000589943582355
0.000587133563723
0.000583926619592
0.000580346276767
0.000576415201155
0.000572155090854
0.000567586901935
0.000562730526483
0.00055760519556
0.000552229133795
0.000546619805931
0.000540793739169
0.000534767040339
0.000528554486927
0.000522170658943
0.000515630670899
0.000508962593606
0.000502181512138
0.000495251396635
0.000488212331274
0.000481078567396
0.000473860486091
0.000466567541694
0.000459208759681
0.000451793041754
0.000444328745955
0.000436823802962
0.00042928573062
0.000421721645178
0.000414138317155
0.00040654210974
0.000398939074266
0.000391334865869
0.000383734731278
0.000376143693148
0.000368566492479
0.000361007524331
0.000353470882048
0.000345960415871
0.000338479684922
0.000331032026238
0.000323620520804
0.00031624803442
0.000308917193946
0.000301630455314
0.000294390032865
0.000287197910489
0.000280055891345
0.000272965597744
0.000265928470371
0.000258945736407
0.000252018529951
0.000245148147565
0.000238336722037
0.000231586587243
0.000224898645527
0.000218272845571
0.000211709443106
0.000205208377672
0.000198769389175
0.00019239215938
0.000186076250042
0.000179821152112
0.000173626259589
0.000167490845633
0.000161414302705
0.000155395677223
0.000149433439409
0.000143524936436
0.000137668877745
0.000131864244156
0.000126109864781
0.00012040431853
0.000114745923171
0.000109132741994
0.000103562684969
9.80340571503e-05
9.25456053427e-05
8.70952822517e-05
8.168047e-05
7.6298305478e-05
7.09457870117e-05
6.56198041682e-05
6.03170268088e-05
5.5030685875e-05
4.97547781853e-05
4.44871250498e-05
3.92267324052e-05
3.39725843508e-05
2.87236435953e-05
2.34788519064e-05
1.82371334744e-05
1.29973989141e-05
7.75854783441e-06
2.5174958395e-06
-0.0101099684353
-0.00975710747771
-0.00941388396057
-0.0090738340751
-0.00874069474872
-0.00841296373401
-0.00809132921882
-0.00777568005405
-0.00746613030741
-0.00716272636577
-0.00686552048874
-0.00657455537527
-0.00628986662631
-0.00601148259405
-0.00573942443716
-0.00547370613044
-0.00521433463313
-0.00496131002401
-0.00471462558989
-0.0044742679622
-0.00424021735391
-0.00401244770685
-0.00379092680512
-0.00357561657354
-0.00336647331463
-0.00316344781628
-0.0029664855996
-0.00277552725564
-0.00259050872181
-0.00241136146329
-0.00223801267209
-0.00207038558274
-0.00190839975438
-0.00175197132088
-0.00160101322799
-0.00145543540659
-0.00131514512646
-0.00118004736534
-0.00105004489055
-0.000925038439165
-0.000804927087903
-0.00068960848155
-0.000578979011938
-0.000472934032783
-0.00037136807513
-0.000274175112997
-0.000181248746832
-9.24823238357e-05
-7.76914335271e-06
7.29973648974e-05
0.000149923493167
0.000223115068119
0.000292677341529
0.0003587148783
0.000421331322692
0.00048062928979
0.000536710389606
0.00058967509881
0.000639622559762
0.000686650521915
0.000730855313256
0.000772331749775
0.000811173064552
0.000847470851438
0.000881315001292
0.000912793681655
0.000941993323331
0.000968998543554
0.000993892080116
0.00101675481277
0.00103766579301
0.0010567022021
0.00107393930334
0.00108945046086
0.00110330717163
0.00111557904717
0.00112633378281
0.00113563717582
0.00114355317576
0.00115014391428
0.00115546970451
0.00115958904155
0.00116255862366
0.00116443338436
0.0011652665214
0.00116510952005
0.00116401217684
0.00116202262918
0.00115918739431
0.0011555514069
0.00115115804038
0.001146049124
0.00114026497844
0.00113384446131
0.00112682500461
0.00111924264744
0.00111113206477
0.00110252659053
0.00109345825168
0.00108395781215
0.00107405480736
0.00106377757489
0.00105315328423
0.00104220796445
0.00103096655298
0.00101944922122
0.001007669887
0.00099564596341
0.000983399069385
0.00097094995614
0.000958318456692
0.00094552353782
0.000932583146029
0.000919514489494
0.000906333878696
0.000893056789773
0.000879697971533
0.000866271567667
0.000852790714687
0.000839268614928
0.000825718881295
0.000812157039229
0.000798591911303
0.000785020447431
0.00077145758262
0.000757914907435
0.000744401617318
0.000730925737151
0.000717494644555
0.000704115246463
0.000690793997741
0.000677536899875
0.000664349538021
0.000651237112349
0.00063820445423
0.000625256038524
0.000612395985732
0.000599628056425
0.000586955678812
0.000574381993447
0.000561909861904
0.000549541855702
0.00053728026659
0.00052512712379
0.000513084208629
0.000501153070613
0.000489335040413
0.000477631236802
0.000466042575693
0.000454569776933
0.000443213361124
0.000431973657087
0.000420850821678
0.000409844855999
0.00039895561109
0.000388182810377
0.000377526129069
0.000366985340711
0.000356560479795
0.000346251528955
0.000336057854535
0.000325978303398
0.000316011594179
0.000306156244675
0.000296410608135
0.000286772930497
0.000277241351911
0.000267813923763
0.000258488602865
0.000249263248534
0.000240135650107
0.000231103358058
0.000222163568874
0.000213313114981
0.000204549192824
0.000195869159794
0.000187270323009
0.000178749841644
0.000170304699079
0.000161931718301
0.00015362764437
0.000145389323068
0.000137213652869
0.000129097178419
0.000121036082596
0.000113026304031
0.000105063612808
9.7143649599e-05
8.92618257417e-05
8.14101382736e-05
7.3581352753e-05
6.57720285814e-05
5.79798980618e-05
5.02026713278e-05
4.24380365989e-05
3.46836618e-05
2.6937197618e-05
1.91962797055e-05
1.14585314474e-05
3.71878345033e-06
-0.00786830405099
-0.00753583707359
-0.00721363343698
-0.00689441077142
-0.00658232202164
-0.00627567235995
-0.005975216099
-0.00568081406115
-0.00539257952632
-0.00511055144272
-0.00483477595485
-0.00456528939902
-0.0043021211259
-0.00404529325713
-0.00379482071794
-0.00355071135256
-0.00331296596124
-0.00308157846541
-0.00285653613925
-0.00263781959415
-0.00242540296898
-0.0022192542352
-0.0020193352863
-0.00182560215108
-0.00163800529834
-0.00145648977173
-0.0012809954011
-0.00111145714697
-0.000947805373766
-0.000789966032318
-0.000637860873165
-0.000491407778937
-0.000350521023844
-0.000215111497027
-8.50870494116e-05
3.96473098214e-05
0.000159189251157
0.00027363872019
0.000383097646913
0.000487669824672
0.000587460688308
0.000682577053915
0.000773126833831
0.000859218778602
0.000940962339316
0.00101846746561
0.00109184436607
0.0011612033689
0.00122665471609
0.00128830834524
0.00134627380304
0.0014006600973
0.00145157548562
0.00149912735055
0.00154342206756
0.00158456487558
0.00162265984644
0.00165780977968
0.00169011600361
0.00171967830659
0.00174659494204
0.00177096252263
0.00179287590397
0.00181242817309
0.0018297106329
0.00184481272874
0.00185782199684
0.00186882404406
0.00187790251293
0.00188513905738
0.00189061335056
0.00189440308271
0.00189658393611
0.00189722957789
0.00189641167547
0.00189419989776
0.00189066190776
0.00188586337882
0.00187986803353
0.00187273767208
0.0018645321801
0.00185530953546
0.00184512583004
0.00183403530293
0.00182209037227
0.00180934166345
0.00179583804016
0.00178162664314
0.00176675292837
0.00175126069195
0.00173519209057
0.00171858767702
0.00170148644731
0.00168392588038
0.00166594196912
0.00164756925365
0.00162884085722
0.00160978852588
0.00159044266812
0.00157083238643
0.00155098550911
0.001530928629
0.00151068713887
0.00149028526709
0.00146974612497
0.00144908803431
0.00142832305044
0.0014074666881
0.0013865386391
0.00136555772684
0.00134454183369
0.00132350790414
0.00130247197279
0.00128144919625
0.00126045389933
0.00123949960602
0.00121859910727
0.00119776446346
0.00117700711834
0.00115633809778
0.00113576823633
0.00111530788717
0.00109496429577
0.0010747414564
0.00105464759803
0.00103469078325
0.00101487803534
0.000995215505118
0.000975708693327
0.000956362570016
0.000937181635063
0.000918169942036
0.000899331134313
0.000880668474488
0.000862184861858
0.000843882844454
0.000825764621437
0.000807832056045
0.000790086701675
0.000772529825615
0.000755162423835
0.000737985222383
0.000720998684657
0.000704203024639
0.000687598225886
0.000671184056245
0.000654960080708
0.000638925668712
0.000623080000644
0.000607422073092
0.000591950707276
0.000576664557552
0.000561562127548
0.000546641785039
0.000531901775679
0.000517340250934
0.000502955315631
0.000488745097546
0.000474707772123
0.000460841410169
0.000447143762215
0.00043361225991
0.000420244141685
0.000407036473414
0.000393986175578
0.000381090054143
0.000368344812856
0.000355747062472
0.000343293320494
0.00033098000665
0.000318803432198
0.000306759734543
0.000294844837899
0.000283054503771
0.000271384569608
0.000259830925763
0.000248389426895
0.00023705582957
0.000225825767219
0.000214694757865
0.000203658244528
0.000192711648761
0.000181850328421
0.000171069427435
0.000160363841707
0.00014972825699
0.000139157191932
0.000128645030359
0.000118185923025
0.000107770645241
9.73907468162e-05
8.70415290558e-05
7.67194492327e-05
6.64209420849e-05
5.61424206218e-05
4.58802780845e-05
3.56308900359e-05
2.53906157883e-05
1.51558014612e-05
4.91919221304e-06
-0.00561252943783
-0.005300744684
-0.00499984125926
-0.00470171948218
-0.00441095790464
-0.00412566255183
-0.00384665638416
-0.00357377146237
-0.00330712041024
-0.00304673462187
-0.00279265410323
-0.00254490876235
-0.0023035216117
-0.0020685085007
-0.00183987802612
-0.00161763173169
-0.00140176422996
-0.00119226322723
-0.000989109755249
-0.000792278297814
-0.000601736895061
-0.000417447453058
-0.000239365906297
-6.74423088347e-05
9.83788536939e-05
0.000258158373943
0.00041196214311
0.000559860917885
0.000701930002327
0.000838248976382
0.000968901545183
0.00109397527675
0.00121356124489
0.0013277537744
0.00143665016643
0.00154035046819
0.00163895729665
0.00173257543936
0.00182131152561
0.00190527396351
0.00198457273453
0.00205931904728
0.0021296250672
0.00219560370085
0.00225736843512
0.00231503312206
0.00236871171204
0.00241851813992
0.0024645661942
0.00250696922573
0.00254583997368
0.00258129051073
0.00261343208392
0.00264237492341
0.00266822809627
0.00269109938946
0.00271109526762
0.002728320806
0.00274287949888
0.00275487313118
0.00276440179069
0.00277156381884
0.00277645567996
0.00277917191468
0.00277980514834
0.00277844603474
0.00277518318178
0.00277010312922
0.00276329034071
0.00275482718155
0.0027447939083
0.00273326866604
0.00272032747807
0.00270604424341
0.00269049074802
0.00267373667137
0.00265584958586
0.00263689497313
0.00261693626169
0.00259603486165
0.00257425017873
0.00255163962025
0.00252825861433
0.00250416064447
0.00247939728933
0.00245401826283
0.00242807145352
0.00240160295846
0.00237465710862
0.00234727649653
0.00231950201685
0.0022913729123
0.0022629268105
0.00223419975406
0.00220522623801
0.00217603925627
0.00214667034985
0.00211714964626
0.00208750588837
0.002057766465
0.00202795745355
0.00199810366683
0.00196822869137
0.00193835492103
0.0019085035987
0.00187869115899
0.00184892777063
0.00181922703303
0.00178960669059
0.00176008360179
0.00173067365226
0.00170139176972
0.00167225197223
0.00164326739862
0.00161445035437
0.00158581235092
0.00155736414353
0.00152911575053
0.00150107656306
0.00147325539456
0.00144566051046
0.00141829933128
0.001391177674
0.00136430008455
0.00133767190119
0.00131129840861
0.00128518433068
0.00125933375303
0.00123375018023
0.00120843659826
0.00118339552721
0.00115862905388
0.00113413886326
0.00110992626496
0.00108599221016
0.00106233730465
0.00103896182045
0.00101586571332
0.000993048644829
0.000970510001258
0.000948248906277
0.000926264228181
0.000904554590597
0.000883118385796
0.000861953793064
0.000841058792448
0.000820431174456
0.000800068548228
0.000779968350931
0.000760127854413
0.000740544173592
0.000721214277458
0.000702135004832
0.000683303076907
0.000664715111149
0.000646367646357
0.000628257169467
0.000610380141503
0.000592732995238
0.000575312058118
0.000558113458512
0.000541133110988
0.000524366756421
0.000507809985851
0.000491458261981
0.000475306938497
0.000459351272048
0.00044358642965
0.000428007489247
0.000412609435264
0.000397387147457
0.000382335374456
0.000367448725161
0.000352721706741
0.000338148812653
0.000323724530108
0.00030944330486
0.000295299506319
0.000281287409076
0.000267401192678
0.000253634955722
0.00023998272734
0.000226438438626
0.000212995859242
0.000199648570963
0.00018638997787
0.000173213329525
0.000160111743821
0.000147078107463
0.000134101985215
0.000121173725665
0.000108287375308
9.5438115066e-05
8.26211034738e-05
6.98314778467e-05
5.70643558771e-05
4.43148370091e-05
3.1578003419e-05
1.88489231817e-05
6.11825633645e-06
-0.00334361640179
-0.00305279324575
-0.0027734610194
-0.00249670528747
-0.00222753849592
-0.00196386151434
-0.00170656821315
-0.00145546124913
-0.00121065267899
-0.000972166251375
-0.000740035800317
-0.000514284806915
-0.000294929793529
-8.19801905439e-05
0.000124561732703
0.000324700763782
0.000518448634416
0.000705823969246
0.00088685204978
0.00106156459196
0.00122999969438
0.00139220166337
0.0015482206977
0.00169811269485
0.00184193912544
0.00197976677571
0.00211166739745
0.00223771744915
0.0023579979249
0.00247259410502
0.00258159525242
0.00268509431317
0.00278318766319
0.00287597495253
0.00296355876453
0.00304604418951
0.00312353869983
0.00319615197614
0.00326399548389
0.00332718223108
0.00338582664741
0.00344004432485
0.00348995172741
0.0035356659302
0.00357730441713
0.00361498490443
0.00364882510872
0.00367894257978
0.00370545457706
0.00372847780709
0.00374812820552
0.0037645208908
0.0037777700465
0.00378798869656
0.00379528854844
0.0037997799075
0.00380157161536
0.00380077096582
0.00379748353636
0.00379181305296
0.00378386139889
0.00377372859754
0.00376151266883
0.00374730954548
0.00373121310987
0.0037133151764
0.00369370538304
0.00367247113693
0.00364969764304
0.00362546791882
0.0035998627584
0.00357296069972
0.00354483803176
0.00351556882246
0.00348522493093
0.00345387599691
0.00342158943739
0.00338843047559
0.00335446218935
0.00331974554671
0.00328433941656
0.0032483005721
0.00321168371266
0.0031745415093
0.00313692465822
0.00309888192361
0.00306046016626
0.00302170436937
0.00298265767513
0.00294336143253
0.00290385524175
0.00286417698672
0.00282436286407
0.00278444742394
0.00274446362268
0.00270444287762
0.00266441511215
0.00262440878649
0.00258445092634
0.00254456716446
0.00250478179321
0.00246511781516
0.00242559697697
0.00238623979575
0.00234706560059
0.00230808890639
0.00226931798533
0.00223076450937
0.00219244424395
0.00215437203783
0.00211656174007
0.00207902623613
0.00204177750101
0.00200482663752
0.00196818390224
0.00193185873471
0.00189585980894
0.00186019506134
0.00182487175924
0.00178989652139
0.00175527528706
0.00172101317373
0.00168711428392
0.00165358194122
0.00162041933923
0.00158762942266
0.00155521468473
0.00152317709372
0.00149151809983
0.00146023866872
0.00142933931912
0.00139882015107
0.00136868087229
0.00133892082114
0.00130953898458
0.00128053401601
0.00125190425228
0.00122364773132
0.00119576221117
0.00116824518591
0.00114109389768
0.00111430534929
0.00108787631722
0.00106180336601
0.00103608286318
0.00101071099017
0.000985683756377
0.000960997004498
0.00093664642206
0.000912627549414
0.000888935788408
0.00086556641472
0.000842514591132
0.00081977537994
0.000797343755066
0.000775214617071
0.000753382813851
0.000731843147728
0.000710590366539
0.000689619124455
0.000668923937386
0.000648499169151
0.000628339043215
0.000608437657692
0.000588788999934
0.000569386959898
0.000550225339267
0.000531297857666
0.000512598153839
0.000494119782849
0.000475856208185
0.000457800791756
0.000439946795019
0.000422287401079
0.0004048157511
0.000387524952779
0.000370408066017
0.000353458083933
0.000336667919386
0.000320030400348
0.000303538271079
0.000287184189525
0.000270960708254
0.00025486024327
0.000238875056542
0.000222997257629
0.000207218816084
0.000191531576911
0.000175927159779
0.000160393929856
0.000144921048614
0.000129501310841
0.000114128620162
9.87968584875e-05
8.34998870465e-05
6.82315474702e-05
5.29856626416e-05
3.77560372143e-05
2.25364608503e-05
7.31550965033e-06
-0.00106256365814
-0.00079297205067
-0.0005354719626
-0.000280337988149
-3.30237789817e-05
0.000208780293576
0.000444107613529
0.000673185516446
0.000895902457027
0.00111224234209
0.00132217769756
0.00152569146784
0.00172277357534
0.00191342109831
0.0020976382579
0.00227543629906
0.00244683335483
0.00261185436351
0.00277053096881
0.00292290129124
0.00306900968843
0.00320890663549
0.00334264852811
0.0034702974025
0.00359192073895
0.00370759126053
0.0038173866413
0.00392138921651
0.00401968574206
0.0041123671222
0.0041995281824
0.00428126743895
0.00435768671525
0.00442889086091
0.00449498761485
0.00455608725998
0.00461230227229
0.00466374713737
0.0047105380777
0.00475279277042
0.0047906301646
0.0048241702321
0.00485353367123
0.00487884166952
0.0049002157198
0.00491777743479
0.00493164829009
0.00494194940555
0.00494880144484
0.00495232443969
0.00495263753834
0.00494985888222
0.00494410551643
0.00493549320273
0.00492413626055
0.00491014748118
0.00489363803405
0.00487471736299
0.00485349307234
0.00483007080959
0.0048045542146
0.00477704490242
0.00474764238035
0.00471644395381
0.0046835447137
0.00464903754023
0.00461301303772
0.00457555946079
0.00453676271121
0.00449670636894
0.00445547168332
0.00441313753743
0.00436978044424
0.00432547458069
0.00428029180788
0.00423430166054
0.00418757134452
0.00414016577394
0.00409214762631
0.0040435773731
0.0039945132802
0.0039450114162
0.00389512569589
0.00384490794063
0.00379440792425
0.00374367340024
0.00369275013063
0.00364168192949
0.00359051071538
0.00353927655653
0.00348801770284
0.00343677061563
0.00338557000868
0.00333444890273
0.0032834386844
0.00323256915677
0.00318186857653
0.00313136368539
0.00308107974885
0.00303104060994
0.00298126874721
0.00293178531904
0.00288261018742
0.00283376194457
0.00278525796931
0.00273711084211
0.00268932693557
0.00264191597038
0.00259489168577
0.0025482668784
0.0025020533324
0.00245626187454
0.00241090241678
0.00236598398658
0.00232151475451
0.00227750205651
0.00223395245024
0.0021908717644
0.0021482651336
0.0021061370006
0.0020644910948
0.0020233303887
0.00198265707734
0.00194247271867
0.00190277847073
0.00186357510795
0.00182486295694
0.00178664186549
0.00174891120857
0.00171166990992
0.00167491646767
0.00163864897562
0.00160286514447
0.00156756232377
0.00153273752357
0.00149838743659
0.00146450845612
0.00143109669217
0.00139814798771
0.00136565793306
0.0013336218817
0.00130203496573
0.00127089210865
0.00124018803986
0.00120991730588
0.00118007428304
0.00115065319111
0.00112164810131
0.00109305294644
0.00106486152901
0.00103706753064
0.00100966452673
0.0009826459952
0.000956005328162
0.000929735843482
0.000903830794119
0.000878283380958
0.000853086755085
0.000828234009454
0.000803718158772
0.00077953211671
0.000755668685404
0.000732120558501
0.000708880328002
0.000685940493635
0.000663293472015
0.000640931603728
0.000618847158183
0.000597032334962
0.000575479261315
0.000554179988157
0.000533126486582
0.000512310650405
0.000491724308444
0.000471359240587
0.0004512071828
0.000431259820659
0.000411508778009
0.00039194560686
0.000372561780771
0.000353348690414
0.000334297636927
0.000315399818001
0.000296646310022
0.000278028056835
0.000259535868932
0.000241160430258
0.00022289230873
0.0002047218553
0.000186636246854
0.00016862347181
0.000150675076631
0.000132783687146
0.000114941908462
9.71423255945e-05
7.93775040474e-05
6.16399901528e-05
4.39223111046e-05
2.62169782822e-05
8.51048584565e-06
0.0012296043445
0.00147770456154
0.00171312229504
0.00194638881485
0.00217160302909
0.00239128993284
0.00260440860856
0.00281121665282
0.00301160319674
0.00320555982439
0.00339306546636
0.00357410963062
0.00374868874292
0.0039168064461
0.00407847351199
0.00423370764184
0.00438253345012
0.00452498237629
0.0046610924918
0.00479090829037
0.00491448045916
0.00503186577251
0.00514312689797
0.00524833202731
0.00534755469254
0.00544087368166
0.00552837268861
0.00561013988859
0.00568626777229
0.00575685301191
0.00582199611626
0.00588180111038
0.00593637524961
0.0059858287114
0.00603027441651
0.00606982778757
0.00610460633453
0.00613472937255
0.00616031786097
0.00618149416221
0.00619838176213
0.00621110499047
0.00621978877783
0.00622455844612
0.00622553947918
0.00622285731087
0.00621663713008
0.00620700366238
0.00619408098986
0.00617799239376
0.00615886016062
0.00613680543701