/*--------------------------------*- C++ -*----------------------------------*\
| =========                 |                                                 |
| \\      /  F ield         | OpenFOAM: The Open Source CFD Toolbox           |
|  \\    /   O peration     | Version:  2412                                  |
|   \\  /    A nd           | Website:  www.openfoam.com                      |
|    \\/     M anipulation  |                                                 |
\*---------------------------------------------------------------------------*/
FoamFile
{
    version     2.0;
    format      ascii;
    arch        "LSB;label=32;scalar=64";
    class       surfaceScalarField;
    location    "1";
    object      phi;
}
// * * * * * * * * * * * * * * * * * * * * * * * * * * * * * * * * * * * * * //

dimensions      [0 3 -1 0 0 0 0];

oriented        oriented;

internalField   nonuniform List<scalar> 
127680
(
-1.34803353929e-07
-0.00194881808996
0.00194959735448
-4.34288412902e-07
-0.00197942998751
0.00197972947249
-7.40464457123e-07
-0.00200802563424
0.00200833181023
-1.05030659965e-06
-0.00203699474125
0.00203730458331
-1.369367582e-06
-0.00206622495939
0.00206654402036
-1.70115459217e-06
-0.0020957510372
0.00209608282414
-2.04801736908e-06
-0.00212558347395
0.00212593033674
-2.40929051334e-06
-0.0021557511147
0.00215611238784
-2.78414108104e-06
-0.00218626509762
0.0021866399482
-3.17180978471e-06
-0.00221713583136
0.00221752350007
-3.57162231138e-06
-0.00224837429029
0.00224877410282
-3.98297281877e-06
-0.0022799920834
0.00228040343389
-4.40532439268e-06
-0.00231200149254
0.00231242384411
-4.83819248337e-06
-0.00234441548241
0.00234484835053
-5.28115637183e-06
-0.00237724769172
0.00237769065561
-5.73384537068e-06
-0.00241051246058
0.00241096514958
-6.1959357851e-06
-0.00244422485735
0.00244468694778
-6.66714531436e-06
-0.00247840065968
0.00247887186921
-7.14723835119e-06
-0.0025130563806
0.00251353647363
-7.63601639857e-06
-0.00254820929514
0.00254869807316
-8.13331426612e-06
-0.00258387742074
0.00258437471859
-8.6390023702e-06
-0.00262007954259
0.00262058523069
-9.15297478242e-06
-0.00265683522668
0.00265734919911
-9.67515960855e-06
-0.00269416482421
0.00269468700906
-1.02055088633e-05
-0.0027320894678
0.00273261981704
-1.07439942853e-05
-0.00277063109683
0.00277116958225
-1.12906180616e-05
-0.00280981245026
0.00281035907405
-1.18453969982e-05
-0.00284965708914
0.00285021186809
-1.24083671564e-05
-0.00289018937857
0.00289075234873
-1.2979586007e-05
-0.00293143451508
0.00293200573394
-1.35591206176e-05
-0.00297341852659
0.00297399806121
-1.41470622753e-05
-0.0030161682675
0.00301675620915
-1.47435085465e-05
-0.00305971143173
0.00306030787798
-1.53485758637e-05
-0.00310407655973
0.00310468162704
-1.59623904547e-05
-0.00314929303704
0.00314990685165
-1.65850918749e-05
-0.00319539110115
0.00319601380259
-1.72168297015e-05
-0.00324240184372
0.00324303358156
-1.78577669681e-05
-0.00329035721118
0.00329099814847
-1.85080729742e-05
-0.00333929002277
0.00333994032878
-1.91679317917e-05
-0.00338923395338
0.00338989381219
-1.98375310039e-05
-0.00344022355882
0.00344089315805
-2.05170721456e-05
-0.00349229426508
0.00349297380626
-2.1206764281e-05
-0.00354548237613
0.00354617206826
-2.19068278522e-05
-0.00359982508771
0.00360052515122
-2.2617484819e-05
-0.00365536047821
0.00365607113512
-2.33389767064e-05
-0.00371212751785
0.00371284900975
-2.40715463286e-05
-0.00377016608823
0.0037708986579
-2.48154449503e-05
-0.00382951696717
0.00383026086582
-2.55709356881e-05
-0.00389022184673
0.00389097733745
-2.63382879939e-05
-0.00395232334618
0.00395309069845
-2.71177804073e-05
-0.00401586500296
0.00401664449534
-2.79097001088e-05
-0.00408089129207
0.00408168321179
-2.87143463133e-05
-0.00414744763272
0.00414825227895
-2.95320202917e-05
-0.00421558040331
0.00421639807729
-3.03630410936e-05
-0.00428533693166
0.00428616795245
-3.12077339208e-05
-0.00435676553398
0.00435761022681
-3.20664296005e-05
-0.00442991550504
0.00443077420074
-3.29394716373e-05
-0.00450483713455
0.0045057101766
-3.38272125201e-05
-0.00458158172736
0.00458246946824
-3.473001777e-05
-0.0046602016128
0.00466110441804
-3.56482592864e-05
-0.00474075015771
0.00474166839927
-3.65823213081e-05
-0.00482328178164
0.00482421584373
-3.75325983357e-05
-0.00490785197988
0.00490880225692
-3.84994965983e-05
-0.00499451733593
0.00499548423415
-3.94834295931e-05
-0.0050833355409
0.00508431947387
-4.04848279161e-05
-0.00517436540942
0.00517536680776
-4.15041279739e-05
-0.00526766691002
0.00526868621008
-4.25417837747e-05
-0.0053633011743
0.00536433883004
-4.35982572274e-05
-0.00546133052881
0.00546238700218
-4.46740215882e-05
-0.00556181851805
0.00556289428238
-4.57695656083e-05
-0.00566482992206
0.00566592546609
-4.68853888536e-05
-0.00577043078931
0.00577154661255
-4.80220056789e-05
-0.00587868846009
0.00587982507689
-4.91799436413e-05
-0.00598967159975
0.00599082953774
-5.03597410879e-05
-0.00610345022458
0.0061046300221
-5.15619506934e-05
-0.00622009572615
0.00622129793579
-5.27871411333e-05
-0.00633968091555
0.00634090610596
-5.40358952167e-05
-0.00646228004601
0.00646352880009
-5.53088102435e-05
-0.00658796885335
0.00658924176842
-5.66064967267e-05
-0.00671682458737
0.00671812227385
-5.79295814045e-05
-0.00684892605133
0.00685024913595
-5.92787064722e-05
-0.00698435363521
0.00698570276027
-6.06545317005e-05
-0.00712318936094
0.00712456518624
-6.20577313136e-05
-0.00726551691989
0.00726692011951
-6.34889936422e-05
-0.00741142171188
0.00741285297415
-6.49490309613e-05
-0.00756099089106
0.00756245092839
-6.6438563546e-05
-0.00771431341399
0.00771580294664
-6.7958334744e-05
-0.00787148007338
0.00787299984458
-6.95091067856e-05
-0.0080325835569
0.00803413432893
-7.10916570864e-05
-0.00819771849009
0.0081993010405
-7.27067831744e-05
-0.00836698148636
0.00836859661253
-7.43553006167e-05
-0.0085404711989
0.00854211971626
-7.603804641e-05
-0.0087182883695
0.00871997111523
-7.77558740454e-05
-0.0089005358893
0.00890225371697
-7.95096613059e-05
-0.0090873188469
0.00908907263414
-8.13003022708e-05
-0.00927874458794
0.00928053522886
-8.3128717776e-05
-0.00947492277093
0.00947675118651
-8.49958439323e-05
-0.0096759654336
0.00967783255978
-8.69026422849e-05
-0.00988198704429
0.00988389384257
-8.88500986141e-05
-0.0100931045667
0.0100950520231
-9.08392192997e-05
-0.0103094375332
0.0103114266539
-9.28710344769e-05
-0.0105311080981
0.0105331399132
-9.4946596191e-05
-0.0107582411095
0.0107603166713
-9.70669853156e-05
-0.0109909641805
0.0109930845697
-9.92333073911e-05
-0.0112294077533
0.0112315740752
-0.000101443958476
-0.0114735481794
0.0114757618053
-0.000103694882667
-0.0117230643301
0.0117253267373
-0.000105985998859
-0.0119777240798
0.0119800362266
-0.000108317214488
-0.0122375297382
0.0122398925782
-0.000110688369079
-0.01250247765
0.0125048921574
-0.000113099386847
-0.0127725531064
0.0127750204361
-0.000115549217265
-0.0130477306909
0.0130502511256
-0.000118037889572
-0.013327968987
0.013330543999
-0.000120565059473
-0.013613214773
0.0136158455795
-0.000123129425032
-0.0139033988119
0.0139060857984
-0.000125730272987
-0.0141984339426
0.0142011782191
-0.00012836730051
-0.0144982144355
0.0145010176668
-0.000131036937824
-0.0148026187086
0.0148054794476
-0.000133739907347
-0.0151114937061
0.0151144149631
-0.000136473986147
-0.0154246721984
0.0154276542142
-0.000139237933832
-0.0157419568326
0.0157450010191
-0.000142029119207
-0.0160631257336
0.0160662323113
-0.000144842307659
-0.0163879280265
0.0163910948256
-0.000147678830035
-0.0167160694707
0.0167193011127
-0.000150534054739
-0.0170472375344
0.0170505329186
-0.000153403046368
-0.017381075332
0.0173844333074
-0.000156286046414
-0.0177171840832
0.0177206089452
-0.000159180505346
-0.0180551273558
0.0180586208926
-0.000162076453656
-0.018394426199
0.018397983079
-0.000164970702891
-0.0187345459644
0.0187381679528
-0.000167858357097
-0.0190749055287
0.0190785930148
-0.000170733720822
-0.0194148691474
0.0194186220702
-0.000173590375313
-0.0197537435646
0.0197575615035
-0.000176420542404
-0.0200907750222
0.0200946565787
-0.000179217918751
-0.0204251440209
0.0204290896676
-0.000181974615009
-0.0207559650786
0.0207599741145
-0.000184684181898
-0.0210822800992
0.0210863536901
-0.000187339258907
-0.0214030577537
0.0214071965937
-0.000189926418678
-0.0217171915752
0.0217213907445
-0.000192432753803
-0.0220234904589
0.0220277460199
-0.000194847980999
-0.0223206779299
0.0223249890398
-0.000197161553658
-0.022607391961
0.0226117579903
-0.000199360846637
-0.0228821817694
0.0228866004881
-0.000201433684855
-0.0231435033204
0.0231479734253
-0.000203365142451
-0.0233897203631
0.023394238271
-0.000205140414891
-0.0236191001502
0.0236236628573
-0.000206742677998
-0.0238298152509
0.0238344181748
-0.000208155169559
-0.0240199417544
0.0240245807899
-0.000209358771684
-0.0241874625072
0.0241921315745
-0.000210336870205
-0.0243302657803
0.0243349616411
-0.000211072625835
-0.024446152529
0.0244508720032
-0.000211546119809
-0.024532841586
0.0245375786298
-0.000211735969176
-0.0245879739443
0.0245927211837
-0.000211620653308
-0.0246091216405
0.024613871601
-0.000211180687933
-0.0245937981907
0.0245985453556
-0.000210394605615
-0.0245394751539
0.0245442118091
-0.000209240969739
-0.0244435953627
0.0244483134527
-0.0002076983955
-0.0243035933196
0.0243082842867
-0.000205744860587
-0.0241169185841
0.0241215724685
-0.000203360431011
-0.0238810610286
0.0238856689552
-0.000200525729028
-0.0235935842502
0.023598136625
-0.000197221879614
-0.0232521609737
0.0232566471225
-0.000193432851686
-0.0228546131793
0.0228590233442
-0.000189143873496
-0.0223989611688
0.0224032845375
-0.0001843414754
-0.0218834758841
0.0218877002042
-0.000179014582471
-0.0213067382594
0.0213108504556
-0.000173157172311
-0.0206677052432
0.0206716935532
-0.000166767424952
-0.0199657858545
0.0199696384069
-0.000159848297011
-0.0192009225038
0.019204627271
-0.000152408217446
-0.0183736810055
0.0183772258256
-0.00014446244826
-0.0174853485531
0.0174887217693
-0.000136033714964
-0.0165380405867
0.0165412309075
-0.00012715322396
-0.0155348152777
0.0155378119798
-0.000117860940365
-0.0144797963177
0.0144825886701
-0.000108208405383
-0.0133783012965
0.0133808804946
-9.82590003906e-05
-0.0122369789214
0.0122393374453
-8.8089026117e-05
-0.0110639496227
0.011066081404
-7.77890226939e-05
-0.00986894979259
0.00987085063099
-6.74649846491e-05
-0.00866347739292
0.00866514529901
-5.72395415259e-05
-0.00746093591248
0.00746237147266
-4.72528375249e-05
-0.00627677342705
0.00627797995408
-3.766375119e-05
-0.00512861211369
0.00512959626301
-2.86514632208e-05
-0.00403636349709
0.00403713639816
-2.04153380875e-05
-0.00302232451253
0.00302290143309
-1.31753775798e-05
-0.00211124527068
0.00211164612791
-7.17239868654e-06
-0.00133036206236
0.00133061199977
-2.66771880034e-06
-0.000709386136278
0.000709516022234
5.76820167143e-08
-0.000280437870735
0.000280484768716
7.56802219352e-07
-7.48786263421e-05
7.48856696613e-05
7.57911219689e-07
-3.0405474456e-05
3.04043655257e-05
7.58882737663e-07
-2.74758152799e-05
2.74748437085e-05
7.59726443707e-07
-2.45561615889e-05
2.45553178444e-05
7.60450905624e-07
-2.16451537825e-05
2.16444293744e-05
7.61063613331e-07
-1.8741427981e-05
1.87408153013e-05
7.61571141888e-07
-1.58436153185e-05
1.58431077607e-05
7.61979064923e-07
-1.29503411202e-05
1.29499331452e-05
7.62291921031e-07
-1.00602232851e-05
1.00599104093e-05
7.62513162498e-07
-7.17186766409e-06
7.1716464522e-06
7.62645148574e-07
-4.28384704564e-06
4.28371507148e-06
-1.39410942144e-06
1.39406505004e-06
4.16123122552e-07
-0.00194730107793
-6.36452688439e-07
-0.00197837741164
-1.70651115687e-06
-0.00200695557572
-2.79236823909e-06
-0.00203590888417
-3.89976118576e-06
-0.00206511756646
-5.03228921908e-06
-0.00209461850917
-6.19233949566e-06
-0.0021244234237
-7.37934884054e-06
-0.00215456410537
-8.59259556739e-06
-0.00218505185089
-9.83142994726e-06
-0.00221589699701
-1.1095272798e-05
-0.00224711044743
-1.23836178409e-05
-0.00227870373839
-1.36960185309e-05
-0.00231068909184
-1.50320957512e-05
-0.00234307940518
-1.63915278465e-05
-0.00237588825961
-1.77740527434e-05
-0.00240912993567
-1.91794571301e-05
-0.00244281945294
-2.06075833657e-05
-0.00247697253343
-2.20583248579e-05
-0.00251160563912
-2.3531622669e-05
-0.00254673599733
-2.50274573874e-05
-0.00258238158602
-2.65458555848e-05
-0.00261856114437
-2.80868860741e-05
-0.00265529419616
-2.96506568172e-05
-0.00269260105345
-3.12373076873e-05
-0.00273050281692
-3.2847024713e-05
-0.0027690213798
-3.44800151179e-05
-0.00280817945984
-3.61365278431e-05
-0.00284800057638
-3.7816842665e-05
-0.00288850906372
-3.95212659906e-05
-0.00292973009175
-4.12501378232e-05
-0.00297168965476
-4.30038222794e-05
-0.00301441458305
-4.47827157475e-05
-0.00305793253827
-4.65872338286e-05
-0.00310227204163
-4.8417823628e-05
-0.00314746244721
-5.027495908e-05
-0.00319353396568
-5.21591383523e-05
-0.00324051766446
-5.40708800945e-05
-0.00328844546944
-5.60107324107e-05
-0.00333735017043
-5.7979265068e-05
-0.00338726542068
-5.99770745501e-05
-0.0034382257493
-6.20047737719e-05
-0.00349026656585
-6.40630087825e-05
-0.00354342414116
-6.6152446501e-05
-0.00359773565003
-6.82737776096e-05
-0.00365323914709
-7.04277115033e-05
-0.00370997358391
-7.26149925648e-05
-0.00376797880712
-7.48363802659e-05
-0.00382729557948
-7.70926659801e-05
-0.00388796556107
-7.93846631537e-05
-0.00395003134904
-8.17132095208e-05
-0.00401353645657
-8.4079172484e-05
-0.00407852532906
-8.64834412826e-05
-0.00414504336388
-8.89269382123e-05
-0.00421313690638
-9.14106050573e-05
-0.0042828532648
-9.39354164689e-05
-0.00435424072252
-9.65023758146e-05
-0.00442734854565
-9.9112515675e-05
-0.00450222699468
-0.000101766893561
-0.00457892734946
-0.000104466600101
-0.00465750190618
-0.000107212754566
-0.00473800400315
-0.000110006514687
-0.00482048802148
-0.000112849059952
-0.00490500943464
-0.000115741606064
-0.00499162478983
-0.000118685403717
-0.00508039174322
-0.000121681737488
-0.00517136907564
-0.000124731924687
-0.00526461672289
-0.000127837316085
-0.005360195783
-0.000130999300389
-0.00545816854455
-0.00013421930371
-0.00555859851471
-0.00013749878768
-0.00566155043809
-0.000140839255329
-0.00576709032169
-0.000144242241236
-0.00587528547416
-0.000147709324073
-0.00598620451683
-0.000151242125927
-0.00609991742268
-0.000154842304979
-0.00621649554712
-0.000158511565148
-0.00633601165538
-0.000162251650095
-0.00645853996102
-0.000166064348776
-0.00658415615468
-0.000169951493032
-0.00671293744319
-0.000173914964238
-0.00684496258013
-0.000177956686838
-0.00698031191253
-0.000182078631698
-0.00711906741607
-0.000186282820741
-0.00726131273091
-0.00019057132471
-0.00740713320789
-0.000194946262104
-0.00755661595358
-0.000199409808096
-0.00770984986799
-0.000203964186765
-0.0078669256947
-0.000208611673503
-0.00802793607001
-0.000213354603554
-0.00819297555994
-0.000218195365737
-0.00836214072427
-0.000223136404027
-0.00853553016068
-0.000228180223568
-0.00871324454991
-0.000233329386379
-0.00889538672652
-0.000238586518667
-0.00908206171466
-0.000243954307015
-0.0092733767995
-0.000249435497921
-0.00946944158
-0.000255032908742
-0.00967036802286
-0.000260749420921
-0.00987627053209
-0.000266587979361
-0.0100872660083
-0.000272551602806
-0.0103034739099
-0.0002786433797
-0.0105250163211
-0.000284866469808
-0.0107520180194
-0.000291224108345
-0.0109846065421
-0.000297719602624
-0.0112229122589
-0.000304347600558
-0.0114669112585
-0.000311095048519
-0.0117162824375
-0.000317961768497
-0.0119707942759
-0.000324947544299
-0.012230449102
-0.000332051822559
-0.01249524333
-0.0003392734403
-0.0127651625744
-0.000346613209552
-0.0130401791362
-0.0003540678515
-0.0133202553589
-0.000361635720397
-0.0136053360345
-0.000369314834119
-0.0138953518824
-0.000377102178153
-0.0141902163684
-0.000384993243457
-0.0144898248227
-0.000392990281106
-0.0147940484394
-0.000401082923813
-0.0151027462855
-0.000409267207356
-0.0154157441991
-0.000417536159616
-0.0157328472723
-0.000425885833205
-0.0160538300046
-0.000434316174713
-0.0163784369894
-0.000442808356983
-0.0167063920814
-0.000451356476523
-0.0170373691064
-0.000459951948645
-0.0173710130969
-0.00046858251734
-0.0177069281376
-0.000477235670242
-0.0180446772
-0.000485900529621
-0.0183837787992
-0.000494561919912
-0.0187237016375
-0.000503203948418
-0.0190638643122
-0.000511809446329
-0.0194036313111
-0.000520359828299
-0.0197423097
-0.000528835301657
-0.0200791457863
-0.000537213605667
-0.0204133213484
-0.000545471226767
-0.020743950921
-0.000553582015586
-0.0210700777646
-0.000561517884668
-0.0213906711673
-0.000569250757929
-0.0217046232947
-0.00057674996777
-0.0220107442459
-0.000583981477815
-0.0223077595022
-0.00059090899311
-0.022594307867
-0.000597494486824
-0.0228689388543
-0.000603697123061
-0.023130109808
-0.000609474406633
-0.023376184726
-0.000614781059676
-0.0236054322677
-0.000619569847485
-0.0238160256371
-0.000623790847598
-0.0240060423662
-0.000627392493714
-0.0241734658015
-0.000630319864099
-0.024316186556
-0.000632515728834
-0.0244320070441
-0.000633921753625
-0.0245186465559
-0.000634478075719
-0.0245737472091
-0.000634123206299
-0.0245948825562
-0.000632793577357
-0.0245795684284
-0.000630425460733
-0.0245252771873
-0.000626954700457
-0.0244294532087
-0.000622317258809
-0.0242895325407
-0.000616450291892
-0.0241029658408
-0.000609291951257
-0.0238672449964
-0.000600782929234
-0.0235799348898
-0.000590867591864
-0.0232387093196
-0.000579494304886
-0.0228413920489
-0.000566617467242
-0.0223860042857
-0.000552199004081
-0.0218708176728
-0.000536209865551
-0.0212944137696
-0.00051863108807
-0.0206557506562
-0.000499456344687
-0.0199542376468
-0.00047869413398
-0.0191898171253
-0.00045637019921
-0.0183630544764
-0.00043252990117
-0.0174752362584
-0.00040724113246
-0.0165284766721
-0.000380597271226
-0.0155258321389
-0.00035272067202
-0.0144714236678
-0.000323765391474
-0.0133705660934
-0.000293921011772
-0.0122299042593
-0.000263416276549
-0.0110575538339
-0.000232522655394
-0.00986324559216
-0.000201558000258
-0.00865847083856
-0.000170890078944
-0.00745662531948
-0.000140940037992
-0.00627314809008
-0.000112185427011
-0.00512565109407
-8.51625726772e-05
-0.00403403455652
-6.04689102954e-05
-0.00302058243529
-3.87641893928e-05
-0.00211003048413
-2.0770675602e-05
-0.00132959923806
-7.27214081994e-06
-0.000708982760286
8.88666315347e-07
-0.000280282849982
2.97096507077e-06
-7.4842706845e-05
2.9603438907e-06
-3.03948533416e-05
2.95071560206e-06
-2.74661870307e-05
2.9420859433e-06
-2.45475318596e-05
2.9344600682e-06
-2.16375278748e-05
2.92784271144e-06
-1.8734810665e-05
2.92223817727e-06
-1.58380108524e-05
2.91765030247e-06
-1.29457532708e-05
2.91408241926e-06
-1.00566553669e-05
2.91153734724e-06
-7.16932258152e-06
2.91001759959e-06
-4.28232734775e-06
-1.39361606817e-06
9.66447312241e-07
-0.00194504646155
-8.41855055376e-07
-0.00197656910927
-2.67727864401e-06
-0.00200512015212
-4.54043682482e-06
-0.00203404572596
-6.43710013968e-06
-0.00206322090313
-8.37100871363e-06
-0.0020926846006
-1.03445967727e-05
-0.00212244983562
-1.23574271683e-05
-0.00215255127498
-1.44089222631e-05
-0.00218300035582
-1.64985638505e-05
-0.00221380735542
-1.86259071551e-05
-0.00224498310414
-2.07905554564e-05
-0.00227653909009
-2.29921928241e-05
-0.00230848745448
-2.5230554651e-05
-0.00234084104333
-2.75054435537e-05
-0.00237361337069
-2.9816719569e-05
-0.00240681865964
-3.21643034953e-05
-0.00244047186903
-3.45481769958e-05
-0.00247458865995
-3.69683718386e-05
-0.00250918544428
-3.94249719365e-05
-0.00254427939725
-4.19181225026e-05
-0.00257988843547
-4.4448016518e-05
-0.00261603125036
-4.70148986804e-05
-0.00265272731399
-4.96190593328e-05
-0.00268999689279
-5.22608412823e-05
-0.00272786103497
-5.49406277132e-05
-0.00276634159336
-5.76588525614e-05
-0.00280546123496
-6.04159944473e-05
-0.00284524343447
-6.32125672229e-05
-0.00288571249094
-6.60491389084e-05
-0.00292689352006
-6.89263097345e-05
-0.00296881248395
-7.18447268942e-05
-0.00301149616593
-7.48050724371e-05
-0.00305497219273
-7.780807538e-05
-0.00309926903867
-8.08544969178e-05
-0.00314441602567
-8.39451416259e-05
-0.003190443321
-8.70808496177e-05
-0.0032373819565
-9.02625028235e-05
-0.00328526381625
-9.34910194684e-05
-0.00333412165377
-9.67673555405e-05
-0.0033839890846
-0.000100092507525
-0.00343490059732
-0.000103467512798
-0.0034868915606
-0.000106893440641
-0.00353999821335
-0.000110371403674
-0.00359425768701
-0.000113902556041
-0.00364970799469
-0.000117488086969
-0.00370638805294
-0.000121129229901
-0.00376433766418
-0.000124827259601
-0.0038235975498
-0.000128583481621
-0.00388420933908
-0.000132399259791
-0.00394621557086
-0.000136275989019
-0.0040096597273
-0.00014021511154
-0.00407458620654
-0.000144218113587
-0.00414104036189
-0.000148286523965
-0.00420906849606
-0.000152421916358
-0.00427871787244
-0.000156625919783
-0.00435003671911
-0.000160900199722
-0.00442307426575
-0.000165246471705
-0.00449788072275
-0.000169666503924
-0.00457450731726
-0.000174162114908
-0.00465300629516
-0.000178735173848
-0.00473343094421
-0.000183387594454
-0.00481583560092
-0.000188121352528
-0.00490027567659
-0.000192938474991
-0.00498680766734
-0.000197841045378
-0.0050754891728
-0.000202831197261
-0.00516637892379
-0.000207911130534
-0.00525953678968
-0.000213083095756
-0.00535502381781
-0.000218349407921
-0.00545290223238
-0.000223712441664
-0.00555323548097
-0.000229174632792
-0.00565608824698
-0.000234738480042
-0.00576152647443
-0.000240406549416
-0.00586961740473
-0.000246181469743
-0.00598042959647
-0.000252065940206
-0.00609403295223
-0.00025806272621
-0.00621049876113
-0.000264174661816
-0.00632989971976
-0.00027040465496
-0.00645230996788
-0.000276755683976
-0.0065778051257
-0.000283230807287
-0.00670646231989
-0.000289833152406
-0.00683836023497
-0.000296565924791
-0.00697357914012
-0.000303432413673
-0.00711220092721
-0.000310435984112
-0.00725430916045
-0.000317580085919
-0.00739998910603
-0.00032486825236
-0.00754932778713
-0.000332304099923
-0.00770241402043
-0.000339891335057
-0.00785933845949
-0.000347633755309
-0.00802019364968
-0.000355535243165
-0.00818507407212
-0.000363599780364
-0.00835407618714
-0.000371831440726
-0.00852729850031
-0.000380234395023
-0.00870484159563
-0.000388812914969
-0.00888680820661
-0.000397571370273
-0.00907330325932
-0.000406514237103
-0.00926443393265
-0.000415646096743
-0.00946030972041
-0.000424971637741
-0.00966104248185
-0.000434495658285
-0.00986674651155
-0.000444223070216
-0.0100775385964
-0.000454158901331
-0.0102935380787
-0.000464308296169
-0.0105148669262
-0.000474676517592
-0.010741649798
-0.000485268954657
-0.010974014105
-0.000496091120683
-0.0112120900929
-0.000507133911872
-0.0114558535995
-0.000518375288123
-0.011704983668
-0.000529814981842
-0.0119592494697
-0.000541452692536
-0.0122186533311
-0.000553287700457
-0.0124831916415
-0.000565318961214
-0.0127528498624
-0.000577543930065
-0.0130276012821
-0.000589961013081
-0.0133074067434
-0.00060256694908
-0.0135922121154
-0.000615358060041
-0.0138819479027
-0.000628329969805
-0.0141765275924
-0.000641477977204
-0.0144758461164
-0.000654793568583
-0.0147797777078
-0.000668271952011
-0.0150881768859
-0.000681904383796
-0.0154008725598
-0.000695682159557
-0.015717668843
-0.000709594064245
-0.0160383417462
-0.000723625582792
-0.016362638099
-0.000737767581898
-0.0166902752452
-0.000752004010988
-0.0170209327286
-0.000766318430346
-0.017354254701
-0.000780692306578
-0.0176898459962
-0.000795105576102
-0.0180272696953
-0.000809536939875
-0.0183660440507
-0.000823962292219
-0.0187056389922
-0.000838355372543
-0.0190454736132
-0.000852687615797
-0.0193849129645
-0.000866928010398
-0.0197232647361
-0.000881042986259
-0.0200597758903
-0.000894995992425
-0.0203936292033
-0.000908747620951
-0.0207239400077
-0.000922255208592
-0.0210497526866
-0.000935472974334
-0.0213700374459
-0.000948352400796
-0.0216836869276
-0.00096084137124
-0.0219895125176
-0.000972883831987
-0.0222862412815
-0.000984419938262
-0.0225725134337
-0.000995386175251
-0.0228468797666
-0.00100571506904
-0.023107799201
-0.00101533543296
-0.0233536370964
-0.00102417203407
-0.0235826638656
-0.0010321457911
-0.0237930543591
-0.00103917364287
-0.0239828880137
-0.00104516879876
-0.0241501499991
-0.00105004038316
-0.0242927333253
-0.00105369395663
-0.024408442556
-0.00105603206921
-0.0244949989125
-0.00105695441988
-0.0245500466924
-0.00105635814864
-0.0245711618227
-0.00105413813353
-0.0245558627899
-0.00105018804951
-0.0245016242286
-0.00104440096276
-0.0244058929831
-0.00103667024992
-0.0242661075621
-0.00102689072425
-0.024079721006
-0.00101495965809
-0.0238442277589
-0.00100077836505
-0.0235571950372
-0.000984253862098
-0.0232162988465
-0.00096530058936
-0.0228193651612
-0.000943842706149
-0.0223644170339
-0.000919816547892
-0.0218497276388
-0.000893173220437
-0.021273879845
-0.000863881348744
-0.0206358329045
-0.00083193052259
-0.0199349967152
-0.000797334965831
-0.019171313684
-0.000760137468465
-0.0183453486484
-0.000720413688243
-0.0174583869278
-0.000678276797415
-0.0165125406872
-0.000633882470714
-0.0155108633935
-0.000587434255116
-0.014457471996
-0.000539188962078
-0.013357676297
-0.000489462567531
-0.0122181147321
-0.000438636188562
-0.0110468951464
-0.000387162175872
-0.00985373891249
-0.000335570150762
-0.00865012625645
-0.000284472928218
-0.00744944000155
-0.000234572152868
-0.00626710428463
-0.000186663383308
-0.00512071406494
-0.000141640414353
-0.00403015044043
-0.000100498739422
-0.00301767586821
-6.4337628832e-05
-0.00210800223358
-3.43605215431e-05
-0.00132832381634
-1.18733419726e-05
-0.000708306043512
1.71971799123e-06
-0.000280019758941
5.18438486955e-06
-7.47779174849e-05
5.16203011934e-06
-3.03724986149e-05
5.14179883946e-06
-2.74459557176e-05
5.12369288056e-06
-2.45294258703e-05
5.10771411626e-06
-2.16215491141e-05
5.09386449659e-06
-1.87209610763e-05
5.08214604197e-06
-1.58262924215e-05
5.07256083123e-06
-1.29361680492e-05
5.06511095118e-06
-1.00492054747e-05
5.05979856684e-06
-7.16401021892e-06
5.05662603025e-06
-4.27915485224e-06
-1.3925848988e-06
1.51523989724e-06
-0.00194205395087
-1.04941066568e-06
-0.00197400445874
-3.65101817212e-06
-0.0020025185447
-6.29205330923e-06
-0.00203140469084
-8.97840461687e-06
-0.00206053455184
-1.17138932943e-05
-0.00208994911194
-1.45010123342e-05
-0.00211966271662
-1.73394592351e-05
-0.00214971282808
-2.02288052436e-05
-0.00218011100985
-2.31686880567e-05
-0.00221086747265
-2.61587919243e-05
-0.00224199300032
-2.91988790424e-05
-0.00227349900301
-3.22887572037e-05
-0.00230539757632
-3.5428303847e-05
-0.00233770149666
-3.86174555746e-05
-0.00237042421893
-4.18562165753e-05
-0.00240357989862
-4.5144650261e-05
-0.00243718343534
-4.84828824992e-05
-0.00247125042771
-5.18710973943e-05
-0.00250579722938
-5.53095450275e-05
-0.00254084094961
-5.87985337664e-05
-0.00257639944672
-6.23384316077e-05
-0.00261249135251
-6.59296584051e-05
-0.00264913608719
-6.95726993137e-05
-0.00268635385188
-7.3268099322e-05
-0.00272416563494
-7.70164540206e-05
-0.00276259323864
-8.0818415827e-05
-0.00280165927313
-8.46746931547e-05
-0.00284138715711
-8.85860510684e-05
-0.00288180113303
-9.25533020645e-05
-0.00292292626909
-9.65773198218e-05
-0.00296478846621
-0.000100659023804
-0.00300741446195
-0.000104799393724
-0.00305083182282
-0.000108999457961
-0.00309506897445
-0.000113260296667
-0.00314015518699
-0.000117583042176
-0.00318612057552
-0.000121968880313
-0.00323299611837
-0.000126419048784
-0.00328081364774
-0.000130934839299
-0.00332960586319
-0.000135517591286
-0.00337940633257
-0.000140168701249
-0.00343024948735
-0.000144889619296
-0.00348217064257
-0.000149681844553
-0.0035352059881
-0.000154546937872
-0.00358939259366
-0.000159486506724
-0.00364476842578
-0.000164502220439
-0.0037013723392
-0.00016959580156
-0.00375924408309
-0.000174769026345
-0.00381842432504
-0.000180023737637
-0.00387895462776
-0.00018536182761
-0.00394087748082
-0.000190785257343
-0.00400423629751
-0.000196296034362
-0.0040690754295
-0.000201896243404
-0.00413544015285
-0.000207588024018
-0.00420337671543
-0.000213373582959
-0.00427293231348
-0.000219255182039
-0.00434415512004
-0.00022523516408
-0.00441709428374
-0.000231315929907
-0.00449179995693
-0.000237499950641
-0.00456832329649
-0.000243789770876
-0.0046467164749
-0.00025018800015
-0.00472703271492
-0.000256697325217
-0.00480932627585
-0.00026332050925
-0.00489365249253
-0.000270060387349
-0.00498006778919
-0.000276919870398
-0.00506862968975
-0.000283901953032
-0.00515939684121
-0.000291009703769
-0.00525242903899
-0.000298246281155
-0.00534778724043
-0.000305614921584
-0.00544553359194
-0.00031311894654
-0.00554573145603
-0.000320761766746
-0.00564844542678
-0.000328546877763
-0.00575374136337
-0.000336477870834
-0.00586168641161
-0.000344558426105
-0.00597234904119
-0.000352792317663
-0.0060857990607
-0.000361183415727
-0.00620210766307
-0.000369735689709
-0.00632134744576
-0.000378453207738
-0.00644359244987
-0.000387340141113
-0.00656891819236
-0.000396400761301
-0.00669740169969
-0.000405639447805
-0.00682912154843
-0.000415060692795
-0.00696415789512
-0.000424669090393
-0.0071025925296
-0.000434469356158
-0.00724450889465
-0.000444466313003
-0.00738999214916
-0.000454664905102
-0.00753912919503
-0.000465070198151
-0.00769200872733
-0.000475687375435
-0.00784872128213
-0.000486521749473
-0.00800935927564
-0.000497578757945
-0.0081740170637
-0.000508863967663
-0.00834279097742
-0.00052038308251
-0.00851577938547
-0.000532141937464
-0.00869308274071
-0.000544146509531
-0.00887480363454
-0.00055640291623
-0.0090610468526
-0.000568917419838
-0.00925191942906
-0.000581696431173
-0.00944753070906
-0.000594746509375
-0.00964799240364
-0.00060807437124
-0.00985341864973
-0.000621686890487
-0.0100639260772
-0.000635591100422
-0.0102796338687
-0.00064979419972
-0.0105006638269
-0.000664303557596
-0.0107271404401
-0.000679126712027
-0.0109591909506
-0.000694271377004
-0.011196945428
-0.000709724706184
-0.0114403794632
-0.000725455676145
-0.0116891723786
-0.000741463928814
-0.0119430941162
-0.000757749053093
-0.0122021470079