/*--------------------------------*- C++ -*----------------------------------*\
| =========                 |                                                 |
| \\      /  F ield         | OpenFOAM: The Open Source CFD Toolbox           |
|  \\    /   O peration     | Version:  2412                                  |
|   \\  /    A nd           | Website:  www.openfoam.com                      |
|    \\/     M anipulation  |                                                 |
\*---------------------------------------------------------------------------*/
FoamFile
{
    version     2.0;
    format      ascii;
    arch        "LSB;label=32;scalar=64";
    class       volScalarField;
    location    "1";
    object      rAU;
}
// * * * * * * * * * * * * * * * * * * * * * * * * * * * * * * * * * * * * * //

dimensions      [-1 3 1 0 0 0 0];

internalField   nonuniform List<scalar> 
64000
(
0.0362754166261
0.0365166808602
0.0367694156173
0.0370234222761
0.0372792324034
0.0375365874856
0.0377953302555
0.038055240431
0.0383162032748
0.0385781110085
0.0388408530777
0.0391043164743
0.0393683858888
0.0396329440737
0.0398978722158
0.0401630501304
0.0404283566126
0.0406936698421
0.0409588675874
0.0412238274874
0.0414884274835
0.0417525460638
0.0420160625137
0.0422788572712
0.0425408121886
0.0428018108091
0.0430617386176
0.0433204833053
0.0435779350516
0.043833986698
0.0440885339893
0.0443414757926
0.0445927142513
0.044842154984
0.0450897072294
0.0453352839818
0.0455788021325
0.0458201825495
0.0460593501894
0.0462962341814
0.0465307678389
0.0467628887217
0.046992538671
0.0472196637892
0.0474442144584
0.0476661453043
0.047885415147
0.0481019869922
0.0483158279305
0.0485269090469
0.0487352053816
0.0489406958239
0.0491433629696
0.0493431930384
0.0495401757592
0.0497343042268
0.049925574789
0.0501139869044
0.0502995429875
0.0504822482747
0.0506621106935
0.0508391407086
0.0510133511699
0.0511847571737
0.051353375922
0.051519226573
0.0516823301074
0.0518427091905
0.0520003880317
0.0521553922582
0.0523077487879
0.0524574857062
0.052604632143
0.0527492181609
0.0528912746514
0.0530308332304
0.0531679261348
0.0533025861273
0.0534348464103
0.0535647405431
0.0536923023599
0.0538175658946
0.0539405653159
0.0540613348646
0.0541799087924
0.0542963213038
0.0544106065114
0.0545227983889
0.0546329307226
0.054741037079
0.0548471507715
0.0549513048266
0.0550535319569
0.0551538645392
0.0552523345912
0.0553489737519
0.0554438132674
0.0555368839765
0.0556282162995
0.0557178402288
0.0558057853221
0.0558920806974
0.0559767550294
0.0560598365463
0.056141353029
0.0562213802196
0.0563000767711
0.0563775566667
0.0564538516611
0.0565289917562
0.0566030064805
0.056675924803
0.0567477756651
0.0568185869516
0.0568883864195
0.0569572013923
0.0570250586232
0.0570919842017
0.0571580047792
0.0572231451887
0.05728743053
0.0573508853373
0.0574135336517
0.0574753990302
0.0575365045618
0.0575968729227
0.0576565259755
0.0577154848391
0.0577737707121
0.0578314042232
0.0578884049777
0.0579447920516
0.0580005838906
0.0580557982938
0.0581104522675
0.058164561983
0.058218142754
0.0582712089622
0.0583237743128
0.0583758516939
0.0584274527507
0.0584785878707
0.0585292663053
0.0585794960694
0.0586292838767
0.0586786350622
0.0587275534626
0.0587760413235
0.0588240992063
0.058871725824
0.0589189178919
0.0589656701618
0.0590119753274
0.0590578238311
0.0591032036736
0.0591481003424
0.0591924967291
0.0592363729636
0.059279706316
0.0593224710645
0.0593646383594
0.0594061761264
0.0594470489516
0.0594872180006
0.0595266409668
0.059565272007
0.0596030616676
0.0596399568663
0.0596759009287
0.0597108336373
0.0597446913162
0.0597774069631
0.0598089104363
0.0598391286898
0.0598679860723
0.0598954047092
0.0599213049599
0.0599456059552
0.0599682262289
0.0599890844491
0.0600081002555
0.0600251952095
0.06004029386
0.0600533249305
0.0600642226274
0.0600729280705
0.0600793908427
0.0600835699018
0.0600854576517
0.0600858501138
0.0600858846596
0.0600859165531
0.0600859459748
0.0600859730936
0.0600859980673
0.0600860210434
0.0600860421597
0.0600860615451
0.0600860793202
0.0600860956002
0.0362777745248
0.036519753048
0.0367703892929
0.0370191795031
0.0372698965919
0.0375222793046
0.0377761648171
0.0380313172328
0.0382876238344
0.038544980112
0.038803278395
0.0390624082543
0.0393222566877
0.0395827085011
0.0398436467533
0.0401049529139
0.040366507281
0.0406281893511
0.0408898779999
0.0411514518187
0.0414127895494
0.0416737702763
0.0419342736945
0.0421941805145
0.0424533727073
0.0427117337307
0.0429691488501
0.0432255053949
0.043480692995
0.0437346037929
0.0439871326674
0.044238177509
0.0444876393246
0.0447354224258
0.044981434658
0.0452255874767
0.0454677960808
0.0457079795605
0.0459460609742
0.0461819674264
0.0464156301101
0.046646984371
0.0468759697474
0.0471025299514
0.0473266129004
0.0475481707025
0.0477671595793
0.0479835398709
0.0481972759842
0.048408336269
0.0486166929838
0.048822322219
0.0490252037567
0.0492253209739
0.0494226607587
0.0496172133717
0.0498089723175
0.0499979342299
0.0501840987184
0.0503674682301
0.050548047936
0.0507258455763
0.050900871305
0.0510731375649
0.0512426589515
0.051409452067
0.0515735353841
0.0517349291159
0.0518936550773
0.0520497365558
0.0522031981949
0.0523540658647
0.0525023665432
0.0526481282116
0.0527913797448
0.0529321508071
0.0530704717514
0.0532063735266
0.0533398875913
0.0534710458249
0.0535998804454
0.0537264239413
0.0538507090058
0.0539727684659
0.0540926352209
0.0542103421936
0.0543259222744
0.0544394082699
0.0545508328658
0.0546602285866
0.0547676277561
0.0548730624683
0.0549765645604
0.0550781655831
0.0551778967779
0.0552757890589
0.0553718729942
0.0554661787896
0.0555587362764
0.0556495749012
0.0557387237169
0.0558262113754
0.055912066122
0.0559963157937
0.056078987814
0.0561601564512
0.0562399809017
0.0563185794306
0.0563959836981
0.0564722235812
0.0565473285705
0.0566213274577
0.0566942487942
0.0567661209701
0.0568369715351
0.0569068278021
0.0569757167673
0.0570436643031
0.0571106964034
0.0571768390391
0.0572421171067
0.0573065551755
0.0573701773787
0.0574330073748
0.0574950683249
0.0575563828233
0.057616973347
0.0576768615209
0.0577360680025
0.0577946135198
0.0578525179908
0.0579098006767
0.0579664801681
0.0580225743207
0.0580781003725
0.0581330746941
0.058187512924
0.0582414297765
0.0582948388189
0.0583477527781
0.0584001834603
0.0584521415179
0.0585036363434
0.0585546761142
0.058605267589
0.0586554161431
0.0587051255918
0.0587543981672
0.0588032343346
0.0588516328272
0.0588995904201
0.0589471017718
0.0589941593762
0.0590407534576
0.059086871875
0.0591324998931
0.059177620122
0.0592222123825
0.0592662535534
0.0593097174881
0.0593525748724
0.0593947931141
0.0594363362515
0.0594771648351
0.0595172358529
0.059556502678
0.0595949150505
0.059632419034
0.0596689570323
0.0597044678425
0.0597388867439
0.0597721456323
0.059804173203
0.0598348952045
0.0598642347422
0.0598921126582
0.059918447994
0.05994315854
0.0599661614778
0.0599873741243
0.0600067147831
0.0600241037095
0.0600394641947
0.0600527237719
0.0600638155458
0.0600726796461
0.0600792648023
0.0600835216735
0.0600854386246
0.0600858319694
0.0600858674122
0.0600859001503
0.0600859303677
0.0600859582362
0.0600859839165
0.0600860075588
0.0600860293035
0.0600860492818
0.0600860676164
0.0600860844247
0.0362846444475
0.0365273356233
0.0367766382905
0.0370201655652
0.0372657608972
0.0375131536668
0.0377621709513
0.0380125592797
0.0382642065458
0.0385170104151
0.0387708652743
0.0390256626495
0.039281291376
0.039537637919
0.0397945868825
0.0400520211611
0.0403098222603
0.0405678707458
0.0408260464941
0.041084228923
0.0413422974045
0.0416001315465
0.0418576114317
0.0421146179731
0.0423710331841
0.0426267404496
0.0428816248115
0.0431355731755
0.0433884746354
0.0436402206806
0.043890705365
0.044139825596
0.0443874812916
0.0446335755218
0.0448780147529
0.0451207089576
0.0453615717115
0.0456005203701
0.0458374761558
0.0460723642239
0.0463051137079
0.0465356577879
0.0467639337815
0.0469898831092
0.0472134512705
0.0474345879042
0.0476532467363
0.0478693855194
0.0480829660244
0.0482939539407
0.0485023188156
0.048708034013
0.0489110765692
0.0491114270919
0.0493090696969
0.0495039918711
0.0496961843428
0.0498856409756
0.0500723586286
0.0502563370218
0.0504375786186
0.0506160884881
0.0507918741459
0.0509649454248
0.0511353143622
0.051302995056
0.0514680035126
0.0516303575218
0.0517900765383
0.0519471815522
0.0521016949621
0.0522536404536
0.0524030428863
0.0525499281852
0.052694323232
0.0528362557618
0.0529757542665
0.0531128478994
0.0532475663874
0.0533799399422
0.0535099991851
0.0536377750763
0.0537632988379
0.0538866018889
0.0540077157899
0.0541266721851
0.0542435027455
0.0543582391217
0.0544709128996
0.0545815555595
0.054690198439
0.0547968727021
0.0549016093069
0.0550044389765
0.0551053921774
0.0552044990952
0.055301789614
0.0553972933034
0.0554910394019
0.0555830568041
0.0556733740524
0.0557620193275
0.0558490204417
0.0559344048339
0.0560181995627
0.0561004773682
0.0561813979111
0.0562610837373
0.0563395663984
0.0564168755987
0.0564930405966
0.056568090542
0.0566420536078
0.0567149579938
0.0567868313505
0.056857700908
0.0569275933883
0.0569965358135
0.0570645534212
0.0571316720557
0.05719791687
0.0572633125462
0.0573278833199
0.057391652956
0.0574546447468
0.0575168814945
0.0575783855768
0.0576391787546
0.0576992821369
0.0577587164158
0.0578175016569
0.0578756572785
0.0579332020326
0.0579901539665
0.0580465304182
0.0581023479303
0.0581576222311
0.058212368142
0.0582665994904
0.0583203291509
0.0583735689861
0.0584263297249
0.0584786208749
0.0585304506703
0.0585818259642
0.0586327521678
0.0586832331442
0.0587332711244
0.058782866591
0.0588320182011
0.0588807226436
0.0589289745049
0.0589767661709
0.0590240877137
0.0590709267701
0.0591172683858
0.0591630948993
0.0592083858128
0.0592531176576
0.0592972638777
0.0593407947036
0.0593836770384
0.0594258743532
0.0594673465852
0.0595080500577
0.0595479374224
0.0595869576247
0.0596250558801
0.0596621736873
0.0596982488796
0.0597332157151
0.059767005013
0.0597995443421
0.0598307582718
0.0598605686853
0.059888895166
0.0599156554674
0.0599407660701
0.0599641428348
0.0599857017584
0.0600053598391
0.0600230360565
0.0600386524736
0.0600521354607
0.0600634170466
0.0600724363945
0.0600791414005
0.0600834744411
0.0600854198517
0.0600858139279
0.0600858502541
0.0600858838245
0.060085914826
0.0600859434336
0.0600859698107
0.0600859941103
0.0600860164751
0.0600860370387
0.0600860559259
0.0600860732562
0.0362969328143
0.036540336067
0.0367882260559
0.0370264492352
0.0372668898307
0.0375092669784
0.0377533959284
0.0379990048269
0.0382459812132
0.038494223975
0.038743628829
0.0389940885761
0.0392454933088
0.039497730749
0.0397506866292
0.0400042449307
0.0402582881422
0.0405126976935
0.0407673541925
0.0410221377089
0.0412769281437
0.0415316054725
0.0417860500372
0.042040142912
0.0422937661215
0.0425468028863
0.0427991379702
0.0430506579131
0.043301251245
0.0435508087558
0.0437992236902
0.044046392006
0.0442922125535
0.0445365871886
0.0447794210343
0.0450206226222
0.0452601039701
0.0454977807461
0.0457335723627
0.0459674020683
0.0461991970351
0.0464288883718
0.0466564111959
0.0468817046694
0.0471047119857
0.0473253803862
0.0475436611335
0.0477595094771
0.0479728846241
0.0481837496808
0.0483920715617
0.0485978209467
0.0488009721886
0.0490015031975
0.0491993953742
0.0493946335014
0.0495872055938
0.0497771027963
0.0499643192858
0.0501488521141
0.0503307010902
0.0505098686545
0.0506863597312
0.0508601816044
0.0510313437991
0.0511998579365
0.0513657375997
0.0515289982079
0.051689656893
0.0518477323781
0.0520032448472
0.052156215832
0.052306668102
0.0524546255531
0.0526001130992
0.0527431565705
0.0528837826177
0.0530220186163
0.0531578925762
0.0532914330616
0.0534226691139
0.0535516301691
0.0536783459919
0.0538028466088
0.0539251622475
0.0540453232789
0.0541633601602
0.0542793033891
0.0543931834558
0.054505030801
0.05461487578
0.0547227486252
0.0548286794148
0.0549326980452
0.0550348342031
0.0551351173428
0.0552335766652
0.0553302410995
0.0554251392876
0.0555182995684
0.055609749969
0.0556995181942
0.0557876316152
0.0558741172675
0.0559590018405
0.0560423564931
0.0561243412736
0.0562050830095
0.0562846131417
0.0563629612253
0.0564401564393
0.0565162276235
0.0565912031148
0.056665110944
0.0567379787351
0.0568098337178
0.0568807027256
0.0569506123187
0.0570195883482
0.0570876564669
0.0571548418868
0.057221169371
0.0572866632456
0.0573513473773
0.0574152451702
0.0574783795541
0.057540772971
0.0576024473161
0.0576634239138
0.0577237235563
0.0577833664439
0.0578423721414
0.0579007595499
0.0579585468724
0.0580157515791
0.0580723903543
0.0581284790493
0.058184032617
0.0582390650526
0.0582935893604
0.0583476174954
0.0584011602779
0.0584542273086
0.0585068268924
0.0585589659534
0.0586106499497
0.0586618827766
0.0587126666723
0.0587630021118
0.0588128877025
0.0588623200608
0.0589112936886
0.058959800857
0.059007831485
0.059055373012
0.0591024102598
0.0591489253033
0.0591948973375
0.0592403025463
0.0592851139777
0.059329301419
0.059372831279
0.0594156664805
0.0594577663615
0.0594990865938
0.0595395791208
0.0595791921173
0.0596178699716
0.0596555532988
0.0596921789915
0.059727680311
0.0597619870258
0.0597950256038
0.0598267194646
0.0598569892989
0.0598857534619
0.0599129284492
0.0599384294632
0.0599621710755
0.0599840679949
0.0600040359455
0.0600219926625
0.0600378590099
0.0600515602239
0.0600630272838
0.0600721984098
0.0600790206851
0.060083428223
0.0600854013403
0.0600857959963
0.0600858331922
0.060085867582
0.0600858993558
0.0600859286916
0.0600859557556
0.0600859807031
0.0600860036795
0.0600860248206
0.0600860442532
0.0600860620989
0.0363146639269
0.0365587850172
0.036805196131
0.0370380758629
0.0372733272941
0.0375106594303
0.0377498749312
0.0379906835281
0.0382329717787
0.0384766391635
0.0387215820537
0.0389676940053
0.039214865878
0.0394629861563
0.0397119413472
0.0399616161552
0.0402118937507
0.0404626562014
0.0407137846558
0.0409651596064
0.0412166613189
0.0414681700467
0.0417195662793
0.0419707310835
0.0422215464109
0.0424718953092
0.0427216622003
0.0429707331739
0.0432189961992
0.043466341374
0.0437126611341
0.0439578504786
0.044201807179
0.0444444319227
0.04468562853
0.0449253041118
0.0451633691426
0.0453997376448
0.0456343273155
0.0458670595482
0.0460978595466
0.0463266564049
0.0465533831365
0.0467779767232
0.0470003780941
0.0472205321445
0.047438387757
0.0476538977347
0.0478670187798
0.0480777114657
0.048285940145
0.0484916728912
0.0486948814408
0.0488955410741
0.0490936305328
0.04928913194
0.0494820306641
0.0496723152087
0.0498599771059
0.050045010794
0.0502274134789
0.0504071850211
0.0505843278167
0.0507588466474
0.0509307485574
0.0511000427401
0.0512667403982
0.0514308546133
0.0515924002342
0.0517513937517
0.0519078531716
0.0520617979022
0.0522132486505
0.0523622273077
0.0525087568439
0.0526528612089
0.0527945652318
0.0529338945301
0.0530708754202
0.0532055348337
0.0533379002383
0.0534679995641
0.0535958611296
0.0537215135781
0.0538449858147
0.0539663069434
0.0540855062166
0.0542026129824
0.0543176566389
0.0544306665919
0.0545416722134
0.0546507028075
0.0547577875752
0.0548629555836
0.0549662357398
0.0550676567664
0.0551672471771
0.0552650352574
0.0553610490495
0.055455316334
0.055547864618
0.0556387211259
0.0557279127834
0.0558154662163
0.0559014077386
0.0559858068805
0.0560688240033
0.0561505902112
0.0562311368266
0.0563104932427
0.0563886885051
0.0564657512988
0.0565417099223
0.0566165923244
0.0566904260807
0.0567632384005
0.0568350561134
0.0569059056892
0.0569758131352
0.0570448041037
0.0571129038504
0.0571801372039
0.0572465285685
0.0573121019032
0.057376880712
0.0574408880305
0.0575041463998
0.0575666778398
0.0576285038254
0.0576896452744
0.0577501225166
0.0578099552555
0.0578691625324
0.0579277626908
0.0579857733353
0.058043211284
0.0581000925163
0.0581564321157
0.0582122442131
0.0582675419347
0.0583223373377
0.0583766413334
0.0584304636078
0.0584838125404
0.0585366951167
0.058589116839
0.0586410816325
0.0586925917428
0.0587436476304
0.0587942478608
0.0588443889857
0.0588940654195
0.0589432693156
0.0589919904435
0.0590402160565
0.059087930756
0.0591351163583
0.0591817517604
0.0592278128069
0.0592732721603
0.0593180991748
0.0593622597779
0.0594057163601
0.0594484276757
0.0594903487593
0.0595314308624
0.0595716214105
0.0596108639864
0.0596490983435
0.0596862604569
0.0597222826165
0.0597570935665
0.0597906187007
0.0598227803182
0.0598534979474
0.059882688746
0.0599102679835
0.0599361496157
0.0599602469577
0.0599824734625
0.0600027436125
0.0600209739297
0.0600370841099
0.0600509982838
0.0600626464079
0.0600719657838
0.0600789027028
0.0600833830371
0.0600853830976
0.0600857781815
0.0600858162329
0.060085851429
0.0600858839631
0.060085914016
0.0600859417564
0.0600859673425
0.0600859909218
0.0600860126322
0.0600860326029
0.0600860509571
0.0363378605538
0.0365827113279
0.0368275841919
0.0370550810205
0.0372851075759
0.0375173628876
0.0377516366789
0.0379876203369
0.0382251990787
0.0384642725189
0.0387047371853
0.0389464869368
0.0391894130433
0.0394334043447
0.0396783477711
0.0399241284277
0.04017062988
0.0404177345458
0.0406653238553
0.0409132785737
0.0411614791511
0.041409805927
0.0416581394024
0.0419063605867
0.0421543512636
0.0424019941933
0.0426491734096
0.0428957745015
0.0431416848313
0.0433867937747
0.0436309929363
0.0438741763545
0.0441162407556
0.0443570856669
0.0445966135879
0.0448347302279
0.0450713445853
0.0453063690806
0.0455397196925
0.0457713160175
0.0460010813697
0.0462289428687
0.0464548314635
0.0466786819868
0.0469004331695
0.0471200276385
0.0473374119465
0.0475525365312
0.0477653556547
0.0479758273998
0.0481839136189
0.0483895798534
0.0485927952733
0.0487935325884
0.0489917679464
0.0491874808644
0.0493806541273
0.0495712736484
0.0497593283729
0.0499448101724
0.0501277137139
0.0503080363338
0.0504857779265
0.0506609408185
0.0508335296335
0.0510035511732
0.0511710143
0.0513359298018
0.0514983102721
0.0516581699992
0.0518155248474
0.0519703921412
0.0521227905499
0.0522727399859
0.0524202615005
0.0525653771817
0.052708110061
0.052848484018
0.0529865236928
0.0531222544016
0.0532557020571
0.0533868930929
0.0535158543954
0.053642613234
0.0537671971966
0.0538896341329
0.054009952096
0.0541281792911
0.0542443440305
0.0543584746862
0.0544705996519
0.0545807473035
0.0546889459656
0.0547952238789
0.0548996091699
0.0550021298267
0.0551028136752
0.0552016883555
0.0552987813068
0.0553941197489
0.0554877306648
0.0555796407934
0.0556698766123
0.0557584643321
0.0558454298864
0.0559308411293
0.0560148586615
0.0560976178575
0.0561791499137
0.0562594840503
0.0563386491648
0.0564166738146
0.0564935862096
0.0565694142238
0.0566441853753
0.056717926838
0.0567906654206
0.0568624275699
0.0569332393419
0.0570031264154
0.0570721140854
0.0571402272385
0.0572074903476
0.057273927454
0.0573395621511
0.0574044175714
0.0574685163604
0.0575318806523
0.0575945320475
0.0576564915899
0.0577177797349
0.0577784163152
0.0578384205053
0.0578978107809
0.0579566048771
0.0580148197397
0.0580724714739
0.0581295752888
0.0581861454382
0.0582421951609
0.0582977366163
0.0583527808074
0.0584073375012
0.0584614151473
0.0585150207901
0.0585681599758
0.0586208366536
0.0586730530755
0.0587248096886
0.0587761050195
0.0588269355566
0.0588772956266
0.0589271772691
0.0589765701068
0.059025461212
0.0590738349722
0.0591216729529
0.0591689537608
0.0592156529086
0.0592617426835
0.0593071920193
0.0593519663752
0.0593960276237
0.0594393339503
0.0594818397697
0.059523495659
0.0595642483149
0.0596040405356
0.0596428112358
0.0596804954978
0.059717024665
0.0597523264842
0.0597863253033
0.0598189423302
0.059850095962
0.0598797021898
0.0599076750892
0.0599339274024
0.0599583712209
0.0599809187751
0.0600014833383
0.0600199802514
0.0600363280729
0.0600504498575
0.0600622745663
0.0600717386067
0.0600787874992
0.0600833389009
0.0600853651307
0.0600857604905
0.0600857993829
0.060085835372
0.060085868654
0.0600858994124
0.0600859278188
0.0600859540336
0.0600859782067
0.0600860004783
0.0600860209793
0.0600860398351
0.0363665450916
0.0366121429089
0.0368554227279
0.037077495862
0.0373022600789
0.0375294043629
0.037758705249
0.0379898361439
0.0382226806952
0.0384571382485
0.0386931051174
0.0389304750094
0.039169139152
0.0394089864898
0.0396499040431
0.0398917770223
0.0401344890959
0.0403779228147
0.0406219597262
0.0408664805893
0.0411113658552
0.0413564958241
0.0416017508714
0.0418470117995
0.0420921600929
0.0423370781629
0.04258164959
0.0428257594139
0.0430692943395
0.0433121429608
0.0435541960384
0.0437953466725
0.0440354904737
0.0442745257934
0.0445123539048
0.0447488791277
0.0449840089614
0.0452176542342
0.0454497292609
0.0456801518898
0.0459088435845
0.0461357295336
0.0463607386766
0.0465838037571
0.0468048613588
0.0470238518895
0.0472407196122
0.0474554126404
0.0476678828733
0.0478780859797
0.0480859813612
0.0482915320804
0.0484947047981
0.0486954697084
0.0488938004392
0.0490896739633
0.0492830705165
0.0494739734801
0.0496623692691
0.0498482472407
0.0500315995713
0.0502124211263
0.050390709349
0.0505664641473
0.0507396877655
0.0509103846641
0.0510785613995
0.0512442265021
0.0514073903536
0.0515680650735
0.0517262644144
0.0518820036408
0.0520352994174
0.0521861697054
0.0523346336622
0.0524807115433
0.0526244246014
0.0527657949943
0.0529048457023
0.0530416004432
0.053176083591
0.0533083201017
0.0534383354399
0.0535661555107
0.0536918065969
0.0538153152986
0.0539367084771
0.0540560132047
0.0541732567107
0.0542884663392
0.0544016695079
0.0545128936681
0.0546221662687
0.0547295147237
0.0548349663806
0.0549385484936
0.0550402881991
0.05514021249
0.0552383482
0.0553347219848
0.0554293603012
0.0555222893995
0.0556135353038
0.0557031238057
0.0557910804546
0.0558774713833
0.0559624573608
0.0560461780205
0.0561286644242
0.0562099456152
0.0562900503326
0.0563690070053
0.0564468437376
0.0565235883211
0.0565992682097
0.0566739105305
0.0567475420668
0.05682018925
0.0568918781518
0.0569626344748
0.0570324835481
0.0571014503087
0.057169559289
0.0572368346032
0.0573032999287
0.0573689784854
0.0574338930171
0.0574980657662
0.0575615184463
0.0576242722183
0.0576863476584
0.0577477647224
0.05780854271
0.0578687002221
0.0579282551183
0.0579872244687
0.0580456244987
0.0581034705353
0.058160776948
0.058217557084
0.0582738231996
0.0583295863859
0.0583848564902
0.0584396420301
0.0584939501037
0.0585477862967
0.0586011545841
0.058654057224
0.0587064946466
0.0587584653415
0.0588099657375
0.058860990076
0.0589115302832
0.0589615758386
0.0590111136411
0.0590601278694
0.0591085998443
0.0591565078902
0.059203827198
0.0592505296905
0.0592965838924
0.0593419548072
0.0593866038041
0.0594304885167
0.059473562756
0.0595157764435
0.0595570755668
0.0595974021619
0.0596366943279
0.0596748862787
0.0597119084374
0.0597476875808
0.0597821470394
0.0598152069602
0.0598467846396
0.0598767949346
0.0599051507595
0.0599317636764
0.0599565445866
0.0599794045315
0.0600002556088
0.060019012011
0.0600355911908
0.0600499151569
0.0600619119026
0.060071516966
0.0600786751188
0.0600832958315
0.0600853474467
0.0600857429301
0.0600857826488
0.0600858194171
0.0600858534342
0.0600858848865
0.060085913948
0.0600859407815
0.0600859655393
0.0600859883635
0.0600860093871
0.0600860287372
0.0364007407081
0.0366471074093
0.0368887421671
0.0371053490924
0.0373248115357
0.0375468084033
0.0377711027086
0.0379973502774
0.0382254330023
0.0384552496176
0.0386866958935
0.038919665161
0.0391540482809
0.0393897338886
0.0396266088163
0.0398645581213
0.040103465325
0.0403432128155
0.040583681996
0.0408247535291
0.0410663076806
0.041308224511
0.0415503841403
0.0417926670332
0.0420349542857
0.0422771278497
0.0425190707462
0.0427606673778
0.0430018037807
0.0432423677529
0.043482249129
0.043721340032
0.0439595350052
0.0441967312092
0.044432828628
0.0446677302218
0.0449013420354
0.0451335733447
0.0453643368097
0.0455935485495
0.0458211282073
0.0460469990717
0.0462710881338
0.0464933260988
0.0467136474403
0.0469319904116
0.047148297042
0.04736251316
0.0475745883624
0.0477844759573
0.0479921329482
0.0481975199791
0.0484006012636
0.0486013445304
0.0487997209338
0.0489957049631
0.0491892743659
0.0493804100395
0.0495690959222
0.0497553189034
0.0499390687129
0.0501203377952
0.0502991211941
0.0504754164457
0.0506492234554
0.0508205443791
0.0509893835071
0.0511557471481
0.0513196435085
0.0514810825835
0.0516400760395
0.0517966371077
0.0519507804768
0.0521025221854
0.0522518795232
0.0523988709321
0.0525435159097
0.052685834917
0.0528258492924
0.0529635811696
0.0530990534
0.0532322894734
0.0533633134459
0.053492149871
0.0536188237368
0.0537433604051
0.053865785554
0.0539861251247
0.0541044052708
0.0542206523147
0.0543348927024
0.0544471529628
0.0545574596719
0.054665839419
0.054772318772
0.0548769242501
0.054979682301
0.0550806192714
0.0551797613864
0.0552771347349
0.055372765245
0.0554666786754
0.055558900594
0.0556494563685
0.0557383711607
0.0558257093393
0.0559116317708
0.0559962823376
0.056079691956
0.0561618894848
0.0562429034994
0.0563227622951
0.0564014938607
0.0564791258936
0.0565556857796
0.0566312005901
0.0567056970741
0.0567792016455
0.0568517403768
0.0569233389877
0.0569940228324
0.0570638168904
0.0571327457489
0.0572008335836
0.057268104147
0.057334580743
0.057400286205
0.0574652428746
0.0575294725707
0.0575929965643
0.0576558355449
0.0577180095834
0.0577795380984
0.0578404398112
0.0579007326987
0.0579604339476
0.0580195599009
0.0580781259986
0.0581361467171
0.0581936355055
0.0582506047156
0.0583070655243
0.0583630278534
0.058418500285
0.058473489971
0.0585280025354
0.0585820419736
0.0586356105483
0.0586887086762
0.0587413348114
0.0587934853227
0.0588451543677
0.0588963337635
0.0589470128516
0.0589971783604
0.0590468142663
0.0590959016537
0.0591444185733
0.0591923399028
0.0592396372107
0.0592862786247
0.059332228707
0.0593774483387
0.0594218946162
0.0594655207647
0.059508276069
0.0595501058286
0.0595909513395
0.0596307499086
0.0596694349061
0.0597069358617
0.0597431786102
0.059778085494
0.0598115756291
0.0598435652434
0.0598739680922
0.059902695962
0.0599296592685
0.0599547677572
0.0599779313148
0.0599990608974
0.0600180695823
0.0600348737484
0.0600493943887
0.060061558557
0.0600713009477
0.0600785656052
0.0600832538457
0.0600853300524
0.0600857255073
0.060085766037
0.0600858035705
0.0600858383099
0.060085870444
0.0600859001495
0.0600859275915
0.0600859529244
0.0600859762925
0.0600859978307
0.0600860176678
0.0364404719273
0.0366876336235
0.0369275729813
0.0371386687704
0.0373527875253
0.0375695981299
0.0377888497376
0.038010180884
0.0382334715762
0.038458619627
0.0386855199378
0.0389140651158
0.0391441454043
0.0393756488962
0.0396084619373
0.0398424691679
0.0400775537253
0.0403135976432
0.0405504819721
0.0407880870003
0.0410262926319
0.0412649785501
0.0415040244625
0.0417433104182
0.0419827169856
0.0422221255268
0.0424614184671
0.0427004795119
0.042939193891
0.0431774485484
0.0434151323994
0.0436521365555
0.0438883544594
0.0441236820779
0.0443580181141
0.0445912641496
0.0448233247844
0.0450541077586
0.0452835241052
0.0455114882345
0.045737918014
0.0459627348775
0.0461858638786
0.0464072337255
0.0466267768251
0.0468444293169
0.0470601310736
0.0472738256975
0.0474854604991
0.047694986476
0.0479023583007
0.0481075342552
0.0483104761615
0.0485111493273
0.0487095224811
0.0489055676862
0.0490992602543
0.0492905786546
0.0494795044043
0.0496660219698
0.0498501186777
0.0500317845955
0.0502110124123
0.0503877973364
0.0505621369796
0.0507340312352
0.0509034821644
0.0510704938893
0.0512350724768
0.0513972258256
0.0515569635531
0.0517142968918
0.0518692385808
0.0520218027607
0.0521720048774
0.0523198615826
0.0524653906394
0.0526086108324
0.0527495418804
0.052888204352
0.0530246195887
0.0531588096283
0.0532907971313
0.0534206053116
0.0535482578749
0.0536737789525
0.0537971930467
0.0539185249769
0.0540377998279
0.0541550429036
0.0542702796829
0.0543835357781
0.054494836894
0.054604208795
0.054711677274
0.0548172681156
0.0549210070757
0.0550229198552
0.0551230320704
0.0552213692423
0.0553179567673
0.055412819908
0.0555059837761
0.0555974733107
0.0556873132823
0.0557755662565
0.0558623931269
0.0559479420111
0.0560322436727
0.0561153267806
0.0561972197377
0.0562779506947
0.0563575475228
0.0564360378165
0.0565134488835
0.0565898077337
0.0566651410737
0.0567394752935
0.0568128364554
0.0568852502884
0.056956742168
0.0570273371041
0.0570970597311
0.0571659342815
0.0572339845728
0.0573012339846
0.0573677054339
0.0574334213544
0.057498403662
0.0575626737282
0.0576262523506
0.0576891597112
0.0577514153377
0.0578130380629
0.0578740459791
0.0579344563852
0.0579942857317
0.0580535495656
0.0581122624686
0.0581704379866
0.0582280885597
0.0582852254473
0.0583418586445
0.0583979967952
0.0584536471
0.0585088152187
0.0585635051694
0.0586177192182
0.0586714577666
0.0587247192332
0.05877749993
0.0588297939345
0.0588815929565
0.0589328862027
0.0589836602373
0.0590338988414
0.0590835828693
0.0591326901058
0.0591811951258
0.0592290691549
0.0592762799364
0.0593227916039
0.0593685645648
0.0594135553959
0.0594577167542
0.0595009973074
0.0595433416875
0.0595846904727
0.0596249802018
0.0596641434274
0.0597021088124
0.0597388012778
0.0597741422077
0.0598080497185
0.0598404390016
0.0598712227438
0.0599003116377
0.0599276149869
0.0599530414164
0.0599764996928
0.0599978996652
0.0600171533293
0.0600341760229
0.0600488877542
0.0600612146661
0.0600710906351
0.0600784590007
0.0600832129597
0.0600853129546
0.0600857082289
0.0600857495541
0.0600857878385
0.0600858232867
0.0600858560904
0.0600858864286
0.0600859144686
0.060085940367
0.06008596427
0.0600859863145
0.060086006631
0.0364857646837
0.0367337512778
0.0369719462194
0.0371774834587
0.0373862140553
0.0375977968594
0.0378119669268
0.0380283458895
0.0382468117124
0.03846726096
0.038689587382
0.0389136825863
0.0391394358916
0.039366734598
0.039595464275
0.0398255088827
0.040056750969
0.0402890720005
0.0405223524587
0.0407564720876
0.0409913102922
0.0412267462154
0.0414626589602
0.0416989279655
0.0419354332137
0.0421720554019
0.0424086762241
0.0426451786119
0.0428814469559
0.0431173673127
0.0433528276018
0.0435877178589