/*--------------------------------*- C++ -*----------------------------------*\
| =========                 |                                                 |
| \\      /  F ield         | OpenFOAM: The Open Source CFD Toolbox           |
|  \\    /   O peration     | Version:  2412                                  |
|   \\  /    A nd           | Website:  www.openfoam.com                      |
|    \\/     M anipulation  |                                                 |
\*---------------------------------------------------------------------------*/
FoamFile
{
    version     2.0;
    format      ascii;
    arch        "LSB;label=32;scalar=64";
    class       volVectorField;
    location    "1";
    object      U;
}
// * * * * * * * * * * * * * * * * * * * * * * * * * * * * * * * * * * * * * //

dimensions      [0 1 -1 0 0 0 0];

internalField   nonuniform List<vector> 
64000
(
(0.00218150249905 -0.108534189286 1.7624384614e-25)
(0.00205982722242 -0.106879702584 3.42462183977e-25)
(0.00207459741094 -0.104998464885 2.07137764826e-25)
(0.00202046280964 -0.103130114154 3.22826959909e-25)
(0.0019947618052 -0.10126232202 3.13003182352e-25)
(0.00195894703058 -0.0993991025516 9.61444296115e-26)
(0.00192576471608 -0.0975413939843 -2.94221966866e-25)
(0.00189150347505 -0.0956918546416 0)
(0.00185718884321 -0.0938513706405 -3.84756142345e-25)
(0.00182267491852 -0.0920207083882 0)
(0.00178806147661 -0.0902006161122 -1.16151240549e-25)
(0.00175339704784 -0.088391829654 6.19216656325e-25)
(0.0017187335642 -0.0865950735537 3.64175506204e-25)
(0.00168411721052 -0.0848110584066 0)
(0.00164959020071 -0.0830404786681 -2.25188691921e-25)
(0.00161519247172 -0.0812840128625 -4.34633895916e-25)
(0.00158095932478 -0.0795423224099 2.64495871726e-34)
(0.00154692381354 -0.0778160492362 -2.25425638164e-35)
(0.00151311580355 -0.0761058159822 -1.94757136162e-25)
(0.0014795626639 -0.0744122253862 -8.41478715427e-25)
(0.00144628986844 -0.0727358583095 -8.23687662142e-25)
(0.00141332004645 -0.0710772732939 -6.32253335609e-25)
(0.00138067387716 -0.0694370065131 6.21406125949e-25)
(0.0013483707673 -0.0678155707086 6.10546576332e-25)
(0.00131642783122 -0.0662134540872 0)
(0.00128486049343 -0.0646311201635 1.48343091254e-25)
(0.00125368344323 -0.0630690080429 1.42420552212e-25)
(0.00122290933724 -0.0615275311712 0)
(0.0011925490369 -0.0600070765846 5.56279442795e-25)
(0.0011626135771 -0.0585080059757 -5.45475640618e-25)
(0.00113311232181 -0.0570306550188 1.2045569485e-25)
(0.0011040526316 -0.0555753325034 6.39354120462e-25)
(0.00107544227213 -0.0541423212072 -2.20965290669e-25)
(0.0010472877786 -0.0527318777728 -2.11481564341e-25)
(0.0010195941022 -0.0513442324672 0)
(0.000992366251149 -0.0499795895 1.93467350123e-25)
(0.000965608183709 -0.0486381272402 1.84925979293e-25)
(0.000939322918051 -0.0473199986031 -9.21343274812e-25)
(0.000913513184803 -0.0460253310751 0)
(0.000888180902126 -0.0447542272026 0)
(0.000863327489269 -0.0435067653607 8.60000945107e-25)
(0.000838953710777 -0.042282999665 0)
(0.000815059820264 -0.0410829606382 6.80206054984e-25)
(0.000791645853039 -0.0399066561293 6.67077069259e-25)
(0.00076871082813 -0.0387540713576 -7.80874662177e-25)
(0.00074625342389 -0.037625169745 -8.82554143553e-25)
(0.000724272522322 -0.0365198937901 -2.30242960497e-25)
(0.000702765988121 -0.0354381652953 6.14290403873e-25)
(0.000681731130805 -0.0343798864114 -1.04221944211e-25)
(0.000661165497429 -0.0333449404525 -1.98220805745e-25)
(0.000641066000965 -0.032333192112 -1.88430314854e-25)
(0.000621429049438 -0.0313444885487 -8.95294034655e-26)
(0.000602251022137 -0.0303786603444 1.26764259642e-24)
(0.000583527764083 -0.0294355218828 -8.07594394216e-26)
(0.000565254848328 -0.0285148723309 -7.66618305561e-26)
(0.000547427883123 -0.0276164965205 0)
(0.000530041951989 -0.0267401654009 0)
(0.000513091792854 -0.0258856370724 -1.23225434542e-24)
(0.000496572228243 -0.0250526577868 9.45791750704e-25)
(0.000480477760044 -0.0242409623282 0)
(0.000464802540776 -0.0234502747606 0)
(0.000449540768828 -0.0226803095331 0)
(0.000434686443723 -0.0219307721367 9.49797982147e-25)
(0.000420233197403 -0.0212013596657 -9.21287657423e-25)
(0.000406174691578 -0.0204917616775 1.78676395057e-24)
(0.000392504625938 -0.0198016609487 0)
(0.00037921638698 -0.0191307340804 0)
(0.000366303163971 -0.0184786522311 -1.70218511067e-24)
(0.000353758238354 -0.0178450818273 -7.14517977881e-26)
(0.000341574881263 -0.017229685115 0)
(0.000329746184711 -0.0166321207731 0)
(0.000318265148783 -0.016052044632 -1.36954475951e-24)
(0.000307124791065 -0.0154891102701 5.68112559639e-26)
(0.000296318129553 -0.0149429694698 0)
(0.000285838157275 -0.0144132727369 -1.29439984002e-24)
(0.000275677848723 -0.0138996699108 1.15619705037e-24)
(0.000265830162083 -0.0134018107022 -1.79839179046e-25)
(0.000256288061264 -0.0129193451104 1.16927534604e-24)
(0.00024704455852 -0.0124519238233 -1.04991898469e-24)
(0.000238092716168 -0.011999198671 7.5220619766e-26)
(0.000229425606742 -0.0115608230902 7.08354330787e-26)
(0.000221036309655 -0.0111364525201 -1.96866341182e-24)
(0.000212917967728 -0.0107257447175 -5.20646557251e-35)
(0.000205063822368 -0.0103283600652 -2.07339834497e-24)
(0.000197467176695 -0.00994396192715 -3.10884263549e-34)
(0.000190121360562 -0.00957221698842 1.92178321487e-24)
(0.000183019769402 -0.0092127955147 9.8215139047e-26)
(0.000176155914369 -0.00886537157326 9.91044801742e-35)
(0.000169523401675 -0.00852962328101 -1.30091740164e-25)
(0.00016311589694 -0.00820523305043 1.40324955226e-24)
(0.00015692715207 -0.00789188778096 -1.58478986702e-24)
(0.000150951034129 -0.00758927902833 -1.43623534247e-25)
(0.000145181498978 -0.00729710318556 -1.4654792435e-24)
(0.000139612589152 -0.00701506162901 -1.377282933e-24)
(0.00013423847486 -0.00674286082357 -1.48265222477e-25)
(0.000129053436084 -0.00648021245376 -1.11217972088e-25)
(0.000124051826883 -0.00622683355264 -5.21268244965e-26)
(0.000119228122486 -0.00598244655897 -1.46544087687e-25)
(0.00011457693832 -0.00574677937362 -9.15231751335e-26)
(0.000110092971811 -0.00551956545423 -4.28569990345e-26)
(0.000105771023586 -0.00530054384818 -2.08960643678e-24)
(0.000101606040994 -0.00508945920134 -7.51079863882e-26)
(9.75930634812e-05 -0.00488606182375 -3.51371429825e-26)
(9.37272162079e-05 -0.00469010769398 -3.28652242218e-26)
(9.00040807909e-05 -0.00450135841267 -1.8088982105e-24)
(8.64178012318e-05 -0.00431958118662 -5.74477187561e-26)
(8.29595977159e-05 -0.00414454893754 -6.19600359144e-27)
(7.96233374647e-05 -0.00397604029221 0)
(7.64059894413e-05 -0.00381383927991 0)
(7.33039475611e-05 -0.00365773535543 -2.80932248311e-24)
(7.03131946896e-05 -0.00350752301089 -2.10866558366e-26)
(6.74320501684e-05 -0.0033630088292 -2.55162998466e-24)
(6.46576370673e-05 -0.00322398847708 3.55214914869e-26)
(6.19838056788e-05 -0.00309027862978 0)
(5.94081437481e-05 -0.0029616962116 2.32506692635e-24)
(5.69293741989e-05 -0.00283806153771 2.87780698652e-26)
(5.45402253476e-05 -0.00271919955687 2.68106533447e-26)
(5.22435814556e-05 -0.00260495861719 3.82099665558e-26)
(5.00371949863e-05 -0.00249514724898 -6.97371746162e-26)
(4.7912301846e-05 -0.00238962304622 -8.65435676896e-26)
(4.58660500528e-05 -0.00228822838813 1.83201397303e-24)
(4.3894894825e-05 -0.00219082294826 -3.75786330994e-26)
(4.2008518424e-05 -0.00209727045604 -1.61883542343e-24)
(4.01999241889e-05 -0.00200739422354 -4.94580043369e-26)
(3.8458414915e-05 -0.00192108663159 1.50428080139e-26)
(3.67927703109e-05 -0.00183821267543 -2.8773449947e-24)
(3.51927948926e-05 -0.00175864201242 2.75565616184e-24)
(3.3639424547e-05 -0.00168225368248 -2.63867204508e-24)
(3.2144332931e-05 -0.00160893230618 2.54859508989e-24)
(3.07174398859e-05 -0.00153855899741 2.43890553015e-24)
(2.93503924168e-05 -0.0014710229783 -2.31429542421e-24)
(2.80397714696e-05 -0.00140621714628 2.3529521053e-24)
(2.67840323108e-05 -0.00134403794185 1.32451317783e-25)
(2.55845192834e-05 -0.00128438535932 -1.5317358775e-26)
(2.44390847876e-05 -0.00122716161036 -1.41835061672e-26)
(2.33430579682e-05 -0.00117227354953 1.84000214919e-24)
(2.22890548813e-05 -0.00111963079244 1.74725910033e-24)
(2.12657915974e-05 -0.00106914671635 -2.45401687138e-25)
(2.02772873308e-05 -0.00102073892826 -1.64918140078e-24)
(1.93372201078e-05 -0.000974325845624 -9.59655385259e-27)
(1.84471436645e-05 -0.000929828209068 -8.86351896886e-27)
(1.75994469563e-05 -0.000887170567028 1.57815693215e-24)
(1.67889782641e-05 -0.000846280689183 -7.55038433796e-27)
(1.6011147808e-05 -0.00080708868101 -6.96346455198e-27)
(1.52633232746e-05 -0.00076952750983 -2.93770908395e-25)
(1.45452884638e-05 -0.000733532219525 3.16165026589e-25)
(1.38575271835e-05 -0.000699040371702 -1.01260688278e-34)
(1.32011260432e-05 -0.000665991660079 2.6601684244e-25)
(1.25785932296e-05 -0.000634328205246 9.21375559798e-27)
(1.19887298899e-05 -0.000603993950427 -1.94138918073e-24)
(1.14231971714e-05 -0.000574935182735 -1.55473488059e-26)
(1.08781030003e-05 -0.00054710056512 1.73226290718e-24)
(1.03558382426e-05 -0.000520440491174 -1.68912959831e-24)
(9.85951099602e-06 -0.000494907084751 -1.60680448275e-24)
(9.3868838599e-06 -0.00047045430183 3.61492378313e-25)
(8.93467577409e-06 -0.000447037989766 1.43737507753e-24)
(8.50248609226e-06 -0.000424615754831 9.0857405922e-27)
(8.08959997165e-06 -0.000403146723284 4.09094397614e-27)
(7.69687887449e-06 -0.000382591636248 -3.61150135729e-27)
(7.32396869178e-06 -0.000362912783709 -3.12600078138e-27)
(6.9684858077e-06 -0.000344073946422 -5.35480217232e-27)
(6.62958691023e-06 -0.000326040301163 2.38237805407e-34)
(6.30535596175e-06 -0.000308778450403 2.00333155162e-24)
(5.99307811628e-06 -0.000292256314076 1.89337052865e-24)
(5.6927867888e-06 -0.000276443070564 -1.79169472092e-24)
(5.4067676106e-06 -0.00026130910163 -2.96765057829e-34)
(5.13578858839e-06 -0.000246825953737 1.55456245727e-27)
(4.87848971716e-06 -0.000232966354824 -3.76489118329e-25)
(4.63377971893e-06 -0.000219704132431 -1.42553858338e-24)
(4.40113603467e-06 -0.000207014162277 -5.5799146243e-28)
(4.18003541193e-06 -0.000194872342453 3.21684881353e-28)
(3.96972117289e-06 -0.000183255544886 -8.93044708021e-25)
(3.76954195392e-06 -0.000172141581823 2.79947998115e-25)
(3.57986037478e-06 -0.000161509160955 -2.48483849199e-35)
(3.40084383834e-06 -0.000151337857652 -2.81866773705e-29)
(3.23163952672e-06 -0.000141608096943 0)
(3.07156230879e-06 -0.000132301106481 0)
(2.92009117883e-06 -0.000123398884768 0)
(2.77675570631e-06 -0.000114884172258 1.31091898169e-24)
(2.64111971755e-06 -0.000106740422581 3.08407670208e-29)
(2.51302529114e-06 -9.89517730601e-05 0)
(2.3926072999e-06 -9.15030167439e-05 -1.72937113358e-28)
(2.27942008339e-06 -8.43795827351e-05 3.51136069797e-28)
(2.17260536089e-06 -7.75675122949e-05 1.01406751671e-24)
(2.07161973999e-06 -7.1053427114e-05 7.29058546386e-28)
(1.97608427841e-06 -6.48245072673e-05 -1.6919064992e-24)
(1.88566462442e-06 -5.88684701834e-05 2.12584787046e-27)
(1.80004853974e-06 -5.31735488294e-05 -1.38958036324e-24)
(1.71899817158e-06 -4.77284711727e-05 1.24465311217e-24)
(1.64165360444e-06 -4.25224463699e-05 -1.46644669474e-27)
(1.56700085314e-06 -3.75451493975e-05 0)
(1.49478152785e-06 -3.2786681272e-05 0)
(1.42496080004e-06 -2.82375554035e-05 7.38061787151e-25)
(1.35746341587e-06 -2.38886879661e-05 0)
(1.29221504225e-06 -1.97313810029e-05 -5.15794387371e-25)
(1.22914239918e-06 -1.5757306568e-05 0)
(1.16817324454e-06 -1.19584914834e-05 -3.12685055782e-25)
(1.10923636552e-06 -8.32730268395e-06 0)
(1.05234208997e-06 -4.85643247284e-06 0)
(9.86769196556e-07 -1.53860696048e-06 -3.42568187694e-27)
(0.00648739330259 -0.108320375652 4.27251913106e-25)
(0.00627533292267 -0.106724531685 6.51766368378e-25)
(0.00622389202477 -0.104844608787 8.41725266425e-25)
(0.00609200761048 -0.102979531501 -4.12686436918e-25)
(0.0059932885002 -0.101113748 1.40901837738e-24)
(0.00588305979079 -0.0992524619127 9.80641124416e-25)
(0.00577619285921 -0.0973964364823 -7.95267142907e-25)
(0.00566846237333 -0.0955487152344 0)
(0.00556106668828 -0.0937101680363 -3.89933363745e-25)
(0.00545386253735 -0.0918815506612 0)
(0.0053469843689 -0.0900635950136 1.0711712348e-25)
(0.00524051119634 -0.0882570243305 1.00348678279e-25)
(0.00513452464487 -0.0864625501668 8.21964698982e-25)
(0.00502910054353 -0.0846808723588 4.3731191604e-25)
(0.00492431013185 -0.0829126750081 0)
(0.00482022157061 -0.0811586272967 -1.11959386656e-25)
(0.00471689775371 -0.0794193826194 -9.28267450828e-26)
(0.00461439815886 -0.0776955753133 -6.78949339365e-25)
(0.00451277862094 -0.0759878210835 6.68052565812e-25)
(0.00441209143286 -0.0742967167629 -6.60546968632e-25)
(0.00431238533911 -0.0726228375515 -1.94180776675e-24)
(0.00421370582909 -0.0709667371503 -1.1615220029e-26)
(0.00411609548095 -0.0693289473844 9.23007244779e-27)
(0.00401959371587 -0.0677099767525 1.84258826146e-24)
(0.00392423727415 -0.0661103101983 0)
(0.00383006000522 -0.0645304082982 6.37095668931e-25)
(0.00373709303664 -0.0629707069295 -1.04519787966e-24)
(0.00364536551235 -0.0614316172008 -1.63911747223e-24)
(0.00355490354461 -0.0599135242 5.60723427962e-25)
(0.00346573095824 -0.0584167873451 -5.4971441042e-25)
(0.00337786993274 -0.0569417406851 4.38317943129e-25)
(0.00329133983361 -0.0554886916904 5.27818455702e-25)
(0.00320615819438 -0.0540579216473 8.17843349848e-34)
(0.00312234077717 -0.0526496861364 7.64239578026e-25)
(0.00303990106697 -0.0512642145269 -1.60964392639e-24)
(0.00295885102269 -0.0499017101706 3.47844459309e-25)
(0.00287920050565 -0.0485623507911 2.22138087042e-24)
(0.00280095769736 -0.0472462887304 -3.09098865757e-24)
(0.00272412951029 -0.0459536510324 -3.00985775197e-25)
(0.00264872073792 -0.0446845397987 0)
(0.00257473484406 -0.0434390330935 8.64897681305e-25)
(0.00250217396895 -0.0422171849656 -1.68403167028e-24)
(0.00243103841968 -0.0410190257265 3.31484964486e-25)
(0.00236132757773 -0.0398445631094 3.36163200156e-25)
(0.00229303929059 -0.0386937824327 -7.84836123217e-25)
(0.0022261697246 -0.0375666470516 -7.65384255388e-25)
(0.00216071457464 -0.0364630995725 0)
(0.00209666810336 -0.0353830620911 7.27212626294e-25)
(0.00203402284128 -0.034326436788 0)
(0.0019727709474 -0.0332931071397 0)
(0.00191290355095 -0.032282938222 3.22963205218e-25)
(0.00185441024937 -0.0312957773938 -6.22894971044e-34)
(0.00179728008183 -0.03033145555 9.83562296791e-25)
(0.00174150122938 -0.0293897875297 -2.47074899237e-24)
(0.00168706073721 -0.028470572729 -2.58420350943e-25)
(0.00163394521224 -0.0275735963064 -2.61583594705e-34)
(0.001582140462 -0.0266986297834 2.30495335834e-25)
(0.00153163114398 -0.0258454316512 -1.1051905593e-24)
(0.0014824015519 -0.0250137484727 3.01116926702e-24)
(0.00143443565697 -0.0242033155517 -1.93459393061e-25)
(0.00138771651309 -0.0234138574665 1.82309177501e-25)
(0.00134222653574 -0.0226450890994 -5.44237628852e-34)
(0.00129794788463 -0.021896716465 -1.11112056103e-24)
(0.00125486224946 -0.0211684371766 -7.71841748219e-25)
(0.00121295082102 -0.0204599412385 2.22097949712e-24)
(0.00117219448413 -0.0197709119732 5.37923244421e-25)
(0.00113257376546 -0.0191010265946 5.05392224593e-25)
(0.00109406883705 -0.0184499567535 -1.39346294354e-24)
(0.00105665972134 -0.0178173693311 0)
(0.00102032628678 -0.0172029271622 3.05484075425e-24)
(0.000985048084916 -0.0166062895599 1.95854345199e-25)
(0.000950804440594 -0.0160271128869 -1.24946944814e-24)
(0.000917574685965 -0.0154650512079 2.5978051619e-24)
(0.000885338162383 -0.0149197568588 -1.60848961065e-25)
(0.000854074072075 -0.0143908809532 -1.44753914746e-24)
(0.00082376149383 -0.0138780739167 3.61885529049e-24)
(0.000794379543359 -0.0133809859989 0)
(0.000765907450054 -0.0128992677157 1.29416721979e-24)
(0.000738324513074 -0.0124325702923 1.3585360266e-24)
(0.000711610059316 -0.011980546136 1.06737795624e-25)
(0.000685743474008 -0.0115428492642 0)
(0.000660704283839 -0.011119135648 -2.13133832287e-24)
(0.000636472217649 -0.0107090635438 -4.01866126025e-24)
(0.000613027187609 -0.0103122938656 -5.69440909921e-24)
(0.000590349242894 -0.0099284905428 -1.48851983168e-25)
(0.000568418595374 -0.00955732079998 1.49130097193e-24)
(0.000547215698971 -0.00919845539598 -1.28148188084e-25)
(0.000526721277228 -0.00885156889167 0)
(0.000506916291177 -0.0085163399196 0)
(0.000487781933983 -0.00819245139513 4.68182536861e-24)
(0.000469299667346 -0.0078795906984 -1.37791428599e-24)
(0.000451451239981 -0.00757744987245 0)
(0.000434218690214 -0.00728572579337 -4.09627448421e-24)
(0.000417584363767 -0.00700412028926 -1.31550209436e-24)
(0.000401530913822 -0.00673234027662 -5.06404026513e-24)
(0.000386041283293 -0.00647009790998 0)
(0.00037109872821 -0.00621711066272 0)
(0.000356686846755 -0.00597310138601 5.21698376288e-26)
(0.000342789560024 -0.00573779841451 -4.29752522079e-24)
(0.000329391111647 -0.00551093562744 -4.18011049032e-24)
(0.0003164760897 -0.00529225245885 -2.01105490846e-24)
(0.000304029403624 -0.00508149396556 0)
(0.000292036285357 -0.00487841086135 -3.78274481295e-24)
(0.000280482315784 -0.00468275947833 1.41172272623e-34)
(0.000269353712023 -0.00449430178865 -1.66472214851e-24)
(0.000258635478146 -0.00431280537171 0)
(0.000248309967101 -0.00413804366448 0)
(0.000238362374998 -0.00396979591376 3.08495091138e-24)
(0.000228781306775 -0.00380784650145 6.79669491322e-26)
(0.000219555531581 -0.00365198535282 -2.78084540013e-24)
(0.000210675768789 -0.00350200785373 0)
(0.00020212398046 -0.00335771423402 -7.77217330457e-24)
(0.000193889388403 -0.00321891239179 -4.97326702425e-24)
(0.000185968748226 -0.0030854112176 0)
(0.000178349878269 -0.0029570304218 2.29025296726e-24)
(0.000171022489403 -0.00283359041807 0)
(0.00016398364271 -0.00271491734881 0)
(0.000157204746001 -0.00260084456363 4.05077712495e-24)
(0.000150677684249 -0.00249120997486 -3.87052935419e-24)
(0.000144413241557 -0.00238585392512 -3.72615316123e-24)
(0.000138403387293 -0.0022846231495 1.78170167909e-24)
(0.000132635291135 -0.00218736820284 2.52967937256e-27)
(0.000127066630859 -0.00209394760269 -1.63686094411e-24)
(0.000121704580544 -0.00200422065969 2.67272329115e-27)
(0.000116568818723 -0.00191805180092 3.19568360644e-27)
(0.000111636468972 -0.00183531204786 -2.87291219263e-24)
(0.000106900610563 -0.00175586385419 2.76263133114e-24)
(0.000102361332162 -0.00167959049313 -2.64700162302e-24)
(9.8005386177e-05 -0.00160638731586 2.5173481173e-24)
(9.38207098815e-05 -0.00153612571023 7.24548517553e-24)
(8.98044822679e-05 -0.00146869647588 -6.96669753911e-24)
(8.59509456528e-05 -0.00140399308437 -2.2395599176e-24)
(8.22539600288e-05 -0.00134191247686 -2.57424019033e-26)
(7.87062140274e-05 -0.00128235582347 -4.06743863531e-24)
(7.53019335938e-05 -0.00122522284879 -2.80644502446e-26)
(7.20364989611e-05 -0.0011704216289 1.82421843382e-24)
(6.89060730244e-05 -0.0011178590404 -1.77227630081e-24)
(6.59094060381e-05 -0.00106744934282 -3.41741386858e-24)
(6.30398661572e-05 -0.00101911745826 -1.61800068394e-24)
(6.02870015296e-05 -0.00097278051262 3.09232317956e-24)
(5.76454451585e-05 -0.000928355039572 -3.12417334999e-26)
(5.51132549083e-05 -0.000885764789776 1.37861930799e-24)
(5.26871829488e-05 -0.000844939150425 -3.13868145046e-26)
(5.03638666478e-05 -0.000805806932031 5.14107407454e-24)
(4.81396650621e-05 -0.000768303563343 0)
(4.60102720136e-05 -0.000732363331493 0)
(4.39715900193e-05 -0.00069792533102 0)
(4.20194923419e-05 -0.000664928467298 0)
(4.01493480499e-05 -0.000633316527236 -4.0576186018e-24)
(3.83575404307e-05 -0.000603029816135 -5.82919899383e-24)
(3.66433245156e-05 -0.000574014228483 -2.93752885821e-26)
(3.50045418567e-05 -0.000546221161292 1.75341415867e-24)
(3.34370024412e-05 -0.000519602093378 -1.66927601469e-24)
(3.19364603424e-05 -0.000494108881191 -1.58860921751e-24)
(3.05006388826e-05 -0.000469692978143 0)
(2.91277822829e-05 -0.000446312028224 -1.43838373423e-24)
(2.78150887359e-05 -0.000423923524051 0)
(2.65601250345e-05 -0.000402486763532 -5.19446373698e-24)
(2.53600231951e-05 -0.0003819633557 5.08831699333e-26)
(2.42123149961e-05 -0.000362314177356 4.97397841628e-26)
(2.31153390028e-05 -0.000343503258413 4.44325810252e-24)
(2.20668769251e-05 -0.000325496367079 0)
(2.10651491096e-05 -0.000308259028681 5.94215391746e-24)
(2.01088990568e-05 -0.000291759857411 -1.93733794777e-24)
(1.91961287153e-05 -0.000275969062298 -5.3243130601e-24)
(1.83241995234e-05 -0.0002608575243 4.32353303137e-26)
(1.74910404994e-05 -0.000246395640341 0)
(1.66953558189e-05 -0.00023255607689 -3.02246914436e-24)
(1.59357356017e-05 -0.000219312832927 -1.42517729454e-24)
(1.5210624646e-05 -0.000206640983614 0)
(1.45185340256e-05 -0.000194516312006 -7.6664078948e-26)
(1.3858138691e-05 -0.00018291574133 -6.03145078874e-24)
(1.32281767028e-05 -0.000171817179863 -7.30851387764e-26)
(1.26271116978e-05 -0.000161199891921 -4.27597271943e-24)
(1.2053491804e-05 -0.000151042895712 3.94171518297e-24)
(1.15062696743e-05 -0.000141326625158 -6.81992612807e-26)
(1.09843501609e-05 -0.000132032397707 -6.66266172093e-26)
(1.04866277364e-05 -0.000123142263043 0)
(1.00120384507e-05 -0.000114639000297 1.49745274343e-24)
(9.55957194961e-06 -0.000106506110313 2.84828003635e-24)
(9.12818224834e-06 -9.87279045291e-05 6.07797221453e-26)
(8.71674371747e-06 -9.12892226312e-05 2.3901892848e-24)
(8.32434121671e-06 -8.41751658445e-05 -2.0887879929e-24)
(7.95023146718e-06 -7.73718740833e-05 3.15330433226e-24)
(7.59358619362e-06 -7.08660676893e-05 -1.74676610871e-24)
(7.25356783459e-06 -6.46449732716e-05 1.69722686388e-24)
(6.92936966048e-06 -5.86963395292e-05 -3.18511221586e-24)
(6.62022016034e-06 -5.30084247938e-05 -1.38882156196e-24)
(6.32544034747e-06 -4.75699800429e-05 1.24659990128e-24)
(6.04374759455e-06 -4.23702583954e-05 9.91500310276e-26)
(5.77372565253e-06 -3.73990009884e-05 -1.86780327334e-24)
(5.51472838315e-06 -3.26463358326e-05 0)
(5.2663482042e-06 -2.81027837271e-05 -6.48116329943e-25)
(5.02815316126e-06 -2.37592687976e-05 9.07422593487e-26)
(4.79972744615e-06 -1.96071007304e-05 5.18459985046e-25)
(4.58067080439e-06 -1.5637958985e-05 0)
(4.37059795086e-06 -1.18438775892e-05 3.15185816105e-25)
(4.1691379403e-06 -8.21723051338e-06 0)
(3.97618279708e-06 -4.75071037587e-06 -2.55716100463e-25)
(3.75287109868e-06 -1.43807909491e-06 0)
(0.0107816662513 -0.107939206399 -1.24873342198e-24)
(0.010481218074 -0.106404884571 -1.23632470467e-24)
(0.0103639591697 -0.104528947528 0)
(0.0101541657661 -0.102670113556 -1.57854169609e-24)
(0.00998257803047 -0.100809116311 -2.94755455258e-25)
(0.00979798166854 -0.0989526034327 0)
(0.00961751519386 -0.097101080113 -1.85507399261e-24)
(0.0094364115368 -0.0952579904018 -1.0138298717e-24)
(0.00925604918783 -0.0934241793637 0)
(0.00907628341857 -0.0916003932045 0)
(0.00889728106576 -0.0897873473401 -9.11673176138e-25)
(0.00871914943932 -0.0879857512306 -1.63111839275e-24)
(0.00854199864094 -0.0861963033154 -8.47036919884e-25)
(0.00836593219875 -0.0844196915001 -1.63156124611e-24)
(0.00819104923957 -0.082656588597 -1.39954168526e-25)
(0.00801744408676 -0.0809076533065 -4.73943507552e-26)
(0.00784520656657 -0.0791735295763 1.42321919936e-24)
(0.00767442176248 -0.0774548430063 -6.85733598534e-25)
(0.00750516970149 -0.0757522011524 4.23356209418e-27)
(0.00733752705098 -0.0740661936359 0)
(0.00717156590705 -0.0723973889666 -1.92142540184e-24)
(0.00700735338249 -0.0707463345086 6.89992818032e-25)
(0.00684495347978 -0.0691135567593 -1.25369447669e-24)
(0.00668442565975 -0.0674995591939 1.50791191413e-25)
(0.0065258251795 -0.0659048218494 -1.03938926897e-24)
(0.00636920457049 -0.0643298013687 1.19188242139e-24)
(0.0062146119264 -0.0627749299281 9.50436382617e-25)
(0.00606209146462 -0.0612406150264 -1.14713655324e-24)
(0.00591168451003 -0.0597272389819 1.3741284616e-24)
(0.00576342879103 -0.0582351586366 0)
(0.00561735853332 -0.0567647054611 -2.94242103609e-24)
(0.00547350458544 -0.0553161848839 -7.5217235125e-25)
(0.00533189507294 -0.0538898764304 -7.16511432475e-25)
(0.00519255498725 -0.0524860340319 -2.70498404597e-24)
(0.0050555057992 -0.0511048855866 -1.98621888704e-24)
(0.00492076670114 -0.0497466333171 0)
(0.0047883538692 -0.0484114539823 1.90044261445e-24)
(0.00465828036264 -0.0470994989612 -1.85803844847e-24)
(0.0045305572799 -0.0458108946938 -1.8107949461e-24)
(0.00440519268874 -0.0445457428405 -5.01439486504e-25)
(0.00428219194673 -0.0433041209436 1.25299703608e-24)
(0.00416155859065 -0.0420860828328 -1.24179752861e-24)
(0.0040432933613 -0.0408916586436 4.26359197253e-25)
(0.00392739482294 -0.0397208559072 -3.21539635158e-24)
(0.00381385963957 -0.0385736601458 0)
(0.00370268177371 -0.037450034896 3.60455602549e-25)
(0.00359385359154 -0.0363499228355 6.8078571749e-25)
(0.00348736580212 -0.035273246448 3.21234524219e-25)
(0.00338320647581 -0.0342199082671 0)
(0.00328136226293 -0.0331897920764 -2.75802388813e-24)
(0.00318181849428 -0.0321827635743 -2.68540187171e-24)
(0.00308455816669 -0.0311986706858 2.61387541225e-24)
(0.00298956291773 -0.0302373447778 0)
(0.00289681336531 -0.0292986014248 -2.47858063633e-24)
(0.00280628821304 -0.0283822407556 2.40606393729e-24)
(0.00271796481681 -0.0274880485877 0)
(0.00263181968419 -0.0266157973074 4.91633153096e-24)
(0.00254782784999 -0.0257652462538 4.76384751423e-24)
(0.00246596311017 -0.02493614272 6.43924024296e-24)
(0.00238619854976 -0.0241282229391 -4.16634906971e-24)
(0.00230850618924 -0.0233412124991 0)
(0.00223285697699 -0.0225748271267 -2.64733035574e-25)
(0.00215922125769 -0.021828773752 -2.15336230426e-24)
(0.00208756864694 -0.0211027510872 0)
(0.00201786784982 -0.0203964501661 3.58117905945e-24)
(0.00195008703121 -0.0197095552503 0)
(0.001884193998 -0.0190417445861 0)
(0.00182015597354 -0.0183926909178 0)
(0.00175793961744 -0.0177620621814 -3.15704332206e-24)
(0.00169751130643 -0.0171495222766 6.41243429617e-24)
(0.00163883720095 -0.0165547316245 -2.68626507432e-24)
(0.00158188315395 -0.0159773476736 0)
(0.00152661477037 -0.0154170255465 2.77371672334e-24)
(0.00147299755157 -0.0148734186813 -2.14377035481e-25)
(0.00142099693595 -0.0143461793351 -1.50334259593e-34)
(0.00137057829413 -0.0138349590346 7.70315521379e-24)
(0.00132170699374 -0.0133394090776 -4.84631699836e-24)
(0.00127434847813 -0.0128591810578 -4.68347638761e-24)
(0.00122846828327 -0.0123939273367 2.26387761564e-24)
(0.0011840320456 -0.0119433014451 -4.37094161302e-24)
(0.00114100556359 -0.0115069584571 -1.14384481653e-25)
(0.00109935487297 -0.0110845553745 -1.03587260821e-25)
(0.00105904627197 -0.0106757515188 -7.86990723672e-24)
(0.00102004631456 -0.0102802088934 -3.71413475162e-24)
(0.000982321831995 -0.00989759248528 1.50859137485e-25)
(0.000945839992055 -0.00952757053194 6.73237959039e-26)
(0.000910568345825 -0.00916981480262 -6.8162283169e-24)
(0.000876474835638 -0.00882400088392 0)
(0.00084352779839 -0.00848980841778 -6.33619382904e-24)
(0.000811695990024 -0.00816692129989 3.05435079387e-24)
(0.000780948610702 -0.00785502788215 0)
(0.000751255323539 -0.00755382116538 0)
(0.000722586281625 -0.00726299895202 -8.24318925582e-24)
(0.000694912141495 -0.00698226399017 -4.13412848511e-26)
(0.000668204052389 -0.00671132412511 -5.06559242747e-24)
(0.000642433667303 -0.00644989240861 0)
(0.000617573175332 -0.00619768717388 1.93529940338e-26)
(0.000593595306744 -0.00595443213521 1.32252560412e-26)
(0.000570473330221 -0.00571985647386 -4.34587990927e-24)
(0.000548181063473 -0.00549369487852 -4.1831465221e-24)
(0.00052669286654 -0.00527568760279 4.16754448456e-27)
(0.000505983645918 -0.00506558050795 6.27440472024e-27)
(0.000486028879384 -0.00486312505474 3.71793065502e-24)
(0.00046680459812 -0.00466807833298 -1.34697346105e-26)
(0.000448287677847 -0.00448020306321 -1.65300275805e-26)
(0.000430454011519 -0.00429926752661 -6.56328938199e-24)
(0.000413277075705 -0.00412504605066 -6.29969089149e-24)
(0.000396733392814 -0.00395731882456 3.0462629026e-24)
(0.00038080298168 -0.00379587087953 0)
(0.00036546571419 -0.00364049292553 0)
(0.000350700984828 -0.00349098160527 0)
(0.000336492363301 -0.00334713225608 -5.11978201492e-24)
(0.000322821683361 -0.00320876189683 -4.90976327034e-24)
(0.000309668145612 -0.003075676538 0)
(0.000297015405688 -0.00294769471307 0)
(0.000284845932752 -0.00282463932184 -6.62070788777e-26)
(0.000273140371097 -0.00270633977309 -8.56356419312e-24)
(0.000261889228956 -0.00259261225022 1.21257509281e-23)
(0.000251077613209 -0.0024833222307 -3.80707609662e-24)
(0.000240682336762 -0.00237829651246 -3.78348620701e-24)
(0.00023068887108 -0.00227738616641 2.37209058712e-35)
(0.00022108297269 -0.00218043430106 -6.69506078019e-24)
(0.000211862464633 -0.00208728879679 6.73926622672e-26)
(0.000203009778771 -0.00199784751371 -6.27155383093e-24)
(0.000194500835928 -0.00191194849611 6.00836989987e-24)
(0.000186328098688 -0.00182946431157 -5.62364917666e-24)
(0.000178480997684 -0.00175026728038 1.29965876328e-25)
(0.000170949389926 -0.001674237131 -5.40598247013e-24)
(0.000163720383695 -0.00160125895786 -1.26305738399e-25)
(0.000156781206766 -0.00153121581656 4.83407181397e-24)
(0.000150121549533 -0.00146399684808 -4.62635958686e-24)
(0.00014373119971 -0.00139949530337 -4.546717988e-24)
(0.000137599966509 -0.00133760810362 -1.17636086289e-25)
(0.000131717679487 -0.00127823559271 -4.0508869617e-24)
(0.000126074853541 -0.00122128044473 0)
(0.000120662800935 -0.00116664957874 0)
(0.000115473476276 -0.00111425264001 3.65344376741e-24)
(0.000110499406561 -0.00106400385954 -3.27893690903e-24)
(0.000105731758489 -0.00101582221835 -6.47236263229e-24)
(0.000101160760224 -0.000969626796046 2.88881672633e-24)
(9.67781983976e-05 -0.000925338038307 -6.10232615762e-24)
(9.25773532861e-05 -0.000882880250801 1.90905277889e-25)
(8.85516796446e-05 -0.000842181455415 1.85957717989e-25)
(8.46947167607e-05 -0.000803171939485 5.13643507278e-24)
(8.10000199058e-05 -0.000765785407977 4.90520842472e-24)
(7.74610605669e-05 -0.000729957323874 4.67974080914e-24)
(7.40714601126e-05 -0.000695625900236 0)
(7.08249471403e-05 -0.000662731087573 8.51197024664e-24)
(6.77153871699e-05 -0.000631215321933 -4.05369452218e-24)
(6.47372742391e-05 -0.000601021889884 -3.70995555602e-24)
(6.18861207564e-05 -0.000572097133952 2.97201699611e-25)
(5.91572296795e-05 -0.000544390603569 1.44299943863e-25)