# Added mass matrix, F0 and tau0
Time = 0                   6 6
(
(0.000000000000e+00 0.000000000000e+00 0.000000000000e+00 0.000000000000e+00 0.000000000000e+00 0.000000000000e+00)
(0.000000000000e+00 0.000000000000e+00 0.000000000000e+00 0.000000000000e+00 0.000000000000e+00 0.000000000000e+00)
(0.000000000000e+00 0.000000000000e+00 0.000000000000e+00 0.000000000000e+00 0.000000000000e+00 0.000000000000e+00)
(0.000000000000e+00 0.000000000000e+00 0.000000000000e+00 0.000000000000e+00 0.000000000000e+00 0.000000000000e+00)
(0.000000000000e+00 0.000000000000e+00 0.000000000000e+00 0.000000000000e+00 0.000000000000e+00 0.000000000000e+00)
(0.000000000000e+00 0.000000000000e+00 0.000000000000e+00 0.000000000000e+00 0.000000000000e+00 0.000000000000e+00)
)

F0               : (0.000000000000e+00 0.000000000000e+00 0.000000000000e+00)
tau0             : (0.000000000000e+00 0.000000000000e+00 0.000000000000e+00)

Time = 0.00598802          6 6
(
(0.000000000000e+00 0.000000000000e+00 0.000000000000e+00 0.000000000000e+00 0.000000000000e+00 0.000000000000e+00)
(0.000000000000e+00 0.000000000000e+00 0.000000000000e+00 0.000000000000e+00 0.000000000000e+00 0.000000000000e+00)
(0.000000000000e+00 0.000000000000e+00 0.000000000000e+00 0.000000000000e+00 0.000000000000e+00 0.000000000000e+00)
(0.000000000000e+00 0.000000000000e+00 0.000000000000e+00 0.000000000000e+00 0.000000000000e+00 0.000000000000e+00)
(0.000000000000e+00 0.000000000000e+00 0.000000000000e+00 0.000000000000e+00 0.000000000000e+00 0.000000000000e+00)
(0.000000000000e+00 0.000000000000e+00 0.000000000000e+00 0.000000000000e+00 0.000000000000e+00 0.000000000000e+00)
)

F0               : (0.000000000000e+00 0.000000000000e+00 0.000000000000e+00)
tau0             : (0.000000000000e+00 0.000000000000e+00 0.000000000000e+00)

Time = 0.013191            6 6
(
(0.000000000000e+00 8.732273208567e-13 0.000000000000e+00 0.000000000000e+00 0.000000000000e+00 0.000000000000e+00)
(0.000000000000e+00 3.137879174297e+00 0.000000000000e+00 0.000000000000e+00 0.000000000000e+00 0.000000000000e+00)
(0.000000000000e+00 1.699513943627e-20 0.000000000000e+00 0.000000000000e+00 0.000000000000e+00 0.000000000000e+00)
(0.000000000000e+00 -1.168635667072e-20 0.000000000000e+00 0.000000000000e+00 0.000000000000e+00 0.000000000000e+00)
(0.000000000000e+00 5.096517052898e-21 0.000000000000e+00 0.000000000000e+00 0.000000000000e+00 0.000000000000e+00)
(0.000000000000e+00 -3.525052560406e-16 0.000000000000e+00 0.000000000000e+00 0.000000000000e+00 0.000000000000e+00)
)

F0               : (-4.543140494882e-14 6.282668849857e-01 -1.150471216962e-20)
tau0             : (-1.169910315851e-20 4.948874655883e-21 -3.444139725072e-16)

Time = 0.0218472           6 6
(
(0.000000000000e+00 9.043080019179e-13 0.000000000000e+00 0.000000000000e+00 0.000000000000e+00 0.000000000000e+00)
(0.000000000000e+00 3.137879174301e+00 0.000000000000e+00 0.000000000000e+00 0.000000000000e+00 0.000000000000e+00)
(0.000000000000e+00 2.757896122754e-21 0.000000000000e+00 0.000000000000e+00 0.000000000000e+00 0.000000000000e+00)
(0.000000000000e+00 1.859475931901e-21 0.000000000000e+00 0.000000000000e+00 0.000000000000e+00 0.000000000000e+00)
(0.000000000000e+00 -3.722331869427e-21 0.000000000000e+00 0.000000000000e+00 0.000000000000e+00 0.000000000000e+00)
(0.000000000000e+00 -3.386680721044e-16 0.000000000000e+00 0.000000000000e+00 0.000000000000e+00 0.000000000000e+00)
)

F0               : (-4.284712775554e-15 6.282619928614e-01 2.736369933270e-21)
tau0             : (1.861605355435e-21 -3.726135605342e-21 -3.343366097755e-16)

Time = 0.0322531           6 6
(
(0.000000000000e+00 8.788543677711e-13 0.000000000000e+00 0.000000000000e+00 0.000000000000e+00 0.000000000000e+00)
(0.000000000000e+00 3.137879174311e+00 0.000000000000e+00 0.000000000000e+00 0.000000000000e+00 0.000000000000e+00)
(0.000000000000e+00 1.533810406627e-20 0.000000000000e+00 0.000000000000e+00 0.000000000000e+00 0.000000000000e+00)
(0.000000000000e+00 -9.413638363083e-21 0.000000000000e+00 0.000000000000e+00 0.000000000000e+00 0.000000000000e+00)
(0.000000000000e+00 -1.159132784200e-22 0.000000000000e+00 0.000000000000e+00 0.000000000000e+00 0.000000000000e+00)
(0.000000000000e+00 -3.438825413636e-16 0.000000000000e+00 0.000000000000e+00 0.000000000000e+00 0.000000000000e+00)
)

F0               : (-2.526884951282e-14 6.282599469563e-01 1.216172056398e-21)
tau0             : (-2.515364249965e-20 -3.727065939984e-21 -3.289463038574e-16)

Time = 0.0446601           6 6
(
(0.000000000000e+00 8.769542991583e-13 0.000000000000e+00 0.000000000000e+00 0.000000000000e+00 0.000000000000e+00)
(0.000000000000e+00 3.137879174326e+00 0.000000000000e+00 0.000000000000e+00 0.000000000000e+00 0.000000000000e+00)
(0.000000000000e+00 2.650069331948e-21 0.000000000000e+00 0.000000000000e+00 0.000000000000e+00 0.000000000000e+00)
(0.000000000000e+00 -5.186162167158e-22 0.000000000000e+00 0.000000000000e+00 0.000000000000e+00 0.000000000000e+00)
(0.000000000000e+00 1.335793063579e-21 0.000000000000e+00 0.000000000000e+00 0.000000000000e+00 0.000000000000e+00)
(0.000000000000e+00 -3.290227424687e-16 0.000000000000e+00 0.000000000000e+00 0.000000000000e+00 0.000000000000e+00)
)

F0               : (7.018238529395e-14 6.282589186139e-01 -1.150752819231e-20)
tau0             : (-1.397508349115e-20 -1.143359001384e-22 -3.395140986656e-16)

Time = 0.0595873           6 6
(
(0.000000000000e+00 8.655996825549e-13 0.000000000000e+00 0.000000000000e+00 0.000000000000e+00 0.000000000000e+00)
(0.000000000000e+00 3.137879174342e+00 0.000000000000e+00 0.000000000000e+00 0.000000000000e+00 0.000000000000e+00)
(0.000000000000e+00 2.650070436768e-21 0.000000000000e+00 0.000000000000e+00 0.000000000000e+00 0.000000000000e+00)
(0.000000000000e+00 -2.790967999856e-21 0.000000000000e+00 0.000000000000e+00 0.000000000000e+00 0.000000000000e+00)
(0.000000000000e+00 -3.723370929015e-21 0.000000000000e+00 0.000000000000e+00 0.000000000000e+00 0.000000000000e+00)
(0.000000000000e+00 -3.437803546513e-16 0.000000000000e+00 0.000000000000e+00 0.000000000000e+00 0.000000000000e+00)
)

F0               : (-2.634356491629e-14 6.282586293317e-01 -9.464440741017e-21)
tau0             : (-1.127838332350e-20 5.052239960830e-21 -3.324866898187e-16)

Time = 0.0773309           6 6
(
(0.000000000000e+00 8.366405127792e-13 0.000000000000e+00 0.000000000000e+00 0.000000000000e+00 0.000000000000e+00)
(0.000000000000e+00 3.137879174347e+00 0.000000000000e+00 0.000000000000e+00 0.000000000000e+00 0.000000000000e+00)
(0.000000000000e+00 -1.106896076467e-20 0.000000000000e+00 0.000000000000e+00 0.000000000000e+00 0.000000000000e+00)
(0.000000000000e+00 -1.353643797687e-20 0.000000000000e+00 0.000000000000e+00 0.000000000000e+00 0.000000000000e+00)
(0.000000000000e+00 -1.452907252062e-23 0.000000000000e+00 0.000000000000e+00 0.000000000000e+00 0.000000000000e+00)
(0.000000000000e+00 -3.401107884890e-16 0.000000000000e+00 0.000000000000e+00 0.000000000000e+00 0.000000000000e+00)
)

F0               : (2.623579522035e-15 6.282582034893e-01 2.642550103619e-21)
tau0             : (-5.187852780003e-22 1.379504089145e-21 -3.226003330166e-16)

Time = 0.0987884           6 6
(
(0.000000000000e+00 8.260468328046e-13 0.000000000000e+00 0.000000000000e+00 0.000000000000e+00 0.000000000000e+00)
(0.000000000000e+00 3.137879174312e+00 0.000000000000e+00 0.000000000000e+00 0.000000000000e+00 0.000000000000e+00)
(0.000000000000e+00 2.849122331362e-21 0.000000000000e+00 0.000000000000e+00 0.000000000000e+00 0.000000000000e+00)
(0.000000000000e+00 -2.512608225436e-20 0.000000000000e+00 0.000000000000e+00 0.000000000000e+00 0.000000000000e+00)
(0.000000000000e+00 -3.570106448200e-21 0.000000000000e+00 0.000000000000e+00 0.000000000000e+00 0.000000000000e+00)
(0.000000000000e+00 -3.306732930510e-16 0.000000000000e+00 0.000000000000e+00 0.000000000000e+00 0.000000000000e+00)
)

F0               : (4.882812904006e-15 6.282582580429e-01 1.742843879336e-20)
tau0             : (-1.126727339631e-20 5.097044598989e-21 -3.410484988495e-16)

Time = 0.124537            6 6
(
(0.000000000000e+00 7.628311435891e-13 0.000000000000e+00 0.000000000000e+00 0.000000000000e+00 0.000000000000e+00)
(0.000000000000e+00 3.137879174195e+00 0.000000000000e+00 0.000000000000e+00 0.000000000000e+00 0.000000000000e+00)
(0.000000000000e+00 1.741798320492e-20 0.000000000000e+00 0.000000000000e+00 0.000000000000e+00 0.000000000000e+00)
(0.000000000000e+00 -1.126372712182e-20 0.000000000000e+00 0.000000000000e+00 0.000000000000e+00 0.000000000000e+00)
(0.000000000000e+00 4.990973907761e-21 0.000000000000e+00 0.000000000000e+00 0.000000000000e+00 0.000000000000e+00)
(0.000000000000e+00 -3.321776131765e-16 0.000000000000e+00 0.000000000000e+00 0.000000000000e+00 0.000000000000e+00)
)

F0               : (-1.218832977254e-14 6.282579653668e-01 3.067103904412e-21)
tau0             : (2.181127671572e-21 -3.643758288883e-21 -3.142790813427e-16)

Time = 0.155804            6 6
(
(0.000000000000e+00 1.957332375108e-13 0.000000000000e+00 0.000000000000e+00 0.000000000000e+00 0.000000000000e+00)
(0.000000000000e+00 3.137879171804e+00 0.000000000000e+00 0.000000000000e+00 0.000000000000e+00 0.000000000000e+00)
(0.000000000000e+00 4.705029168416e-21 0.000000000000e+00 0.000000000000e+00 0.000000000000e+00 0.000000000000e+00)
(0.000000000000e+00 -9.635003081151e-23 0.000000000000e+00 0.000000000000e+00 0.000000000000e+00 0.000000000000e+00)
(0.000000000000e+00 1.443614973996e-21 0.000000000000e+00 0.000000000000e+00 0.000000000000e+00 0.000000000000e+00)
(0.000000000000e+00 -3.245781897081e-16 0.000000000000e+00 0.000000000000e+00 0.000000000000e+00 0.000000000000e+00)
)

F0               : (-4.668899815374e-15 6.282578328976e-01 4.889624165192e-21)
tau0             : (-2.244954725709e-20 1.598727972166e-21 -3.188863053011e-16)

Time = 0.192508            6 6
(
(0.000000000000e+00 1.174257897230e-13 0.000000000000e+00 0.000000000000e+00 0.000000000000e+00 0.000000000000e+00)
(0.000000000000e+00 3.137879176130e+00 0.000000000000e+00 0.000000000000e+00 0.000000000000e+00 0.000000000000e+00)
(0.000000000000e+00 3.274052014870e-21 0.000000000000e+00 0.000000000000e+00 0.000000000000e+00 0.000000000000e+00)
(0.000000000000e+00 -2.243109726956e-20 0.000000000000e+00 0.000000000000e+00 0.000000000000e+00 0.000000000000e+00)
(0.000000000000e+00 1.468508964329e-21 0.000000000000e+00 0.000000000000e+00 0.000000000000e+00 0.000000000000e+00)
(0.000000000000e+00 -3.369183129098e-16 0.000000000000e+00 0.000000000000e+00 0.000000000000e+00 0.000000000000e+00)
)

F0               : (-1.935571928430e-14 6.282567953616e-01 -1.030868133238e-20)
tau0             : (-1.213997427520e-20 5.292129265043e-21 -3.313317603951e-16)

Time = 0.237369            6 6
(
(0.000000000000e+00 -7.856743228650e-13 0.000000000000e+00 0.000000000000e+00 0.000000000000e+00 0.000000000000e+00)
(0.000000000000e+00 3.137879172955e+00 0.000000000000e+00 0.000000000000e+00 0.000000000000e+00 0.000000000000e+00)
(0.000000000000e+00 -1.192545107324e-20 0.000000000000e+00 0.000000000000e+00 0.000000000000e+00 0.000000000000e+00)
(0.000000000000e+00 -1.210574122170e-20 0.000000000000e+00 0.000000000000e+00 0.000000000000e+00 0.000000000000e+00)
(0.000000000000e+00 5.201614623560e-21 0.000000000000e+00 0.000000000000e+00 0.000000000000e+00 0.000000000000e+00)
(0.000000000000e+00 -3.341943619367e-16 0.000000000000e+00 0.000000000000e+00 0.000000000000e+00 0.000000000000e+00)
)

F0               : (-2.841829419356e-15 6.282566997833e-01 1.660922278906e-20)
tau0             : (-9.151940631639e-21 -3.197164764719e-22 -3.509863129032e-16)

Time = 0.291842            6 6
(
(0.000000000000e+00 -8.058032579100e-13 0.000000000000e+00 0.000000000000e+00 0.000000000000e+00 0.000000000000e+00)
(0.000000000000e+00 3.137879169474e+00 0.000000000000e+00 0.000000000000e+00 0.000000000000e+00 0.000000000000e+00)
(0.000000000000e+00 2.227814051542e-21 0.000000000000e+00 0.000000000000e+00 0.000000000000e+00 0.000000000000e+00)
(0.000000000000e+00 -2.568147393622e-21 0.000000000000e+00 0.000000000000e+00 0.000000000000e+00 0.000000000000e+00)
(0.000000000000e+00 -4.033016620500e-21 0.000000000000e+00 0.000000000000e+00 0.000000000000e+00 0.000000000000e+00)
(0.000000000000e+00 -3.441453562315e-16 0.000000000000e+00 0.000000000000e+00 0.000000000000e+00 0.000000000000e+00)
)

F0               : (-6.657326599713e-15 6.282560737188e-01 -1.031426465399e-20)
tau0             : (-1.112426912191e-20 4.688894104395e-21 -3.466436808617e-16)

Time = 0.35622             6 6
(
(0.000000000000e+00 -8.426495493075e-13 0.000000000000e+00 0.000000000000e+00 0.000000000000e+00 0.000000000000e+00)
(0.000000000000e+00 3.137879164588e+00 0.000000000000e+00 0.000000000000e+00 0.000000000000e+00 0.000000000000e+00)
(0.000000000000e+00 3.050069561983e-21 0.000000000000e+00 0.000000000000e+00 0.000000000000e+00 0.000000000000e+00)
(0.000000000000e+00 -9.601008365985e-23 0.000000000000e+00 0.000000000000e+00 0.000000000000e+00 0.000000000000e+00)
(0.000000000000e+00 3.534904698725e-21 0.000000000000e+00 0.000000000000e+00 0.000000000000e+00 0.000000000000e+00)
(0.000000000000e+00 -3.486333478919e-16 0.000000000000e+00 0.000000000000e+00 0.000000000000e+00 0.000000000000e+00)
)

F0               : (-5.190083931204e-14 6.282548806377e-01 -1.117674171452e-20)
tau0             : (-1.135506787927e-20 1.119161556501e-20 -3.657271743447e-16)

Time = 0.436693            6 6
(
(0.000000000000e+00 -1.712025614255e-12 0.000000000000e+00 0.000000000000e+00 0.000000000000e+00 0.000000000000e+00)
(0.000000000000e+00 3.137879161011e+00 0.000000000000e+00 0.000000000000e+00 0.000000000000e+00 0.000000000000e+00)
(0.000000000000e+00 1.747509972503e-20 0.000000000000e+00 0.000000000000e+00 0.000000000000e+00 0.000000000000e+00)
(0.000000000000e+00 -1.126777721426e-20 0.000000000000e+00 0.000000000000e+00 0.000000000000e+00 0.000000000000e+00)
(0.000000000000e+00 1.126163610726e-20 0.000000000000e+00 0.000000000000e+00 0.000000000000e+00 0.000000000000e+00)
(0.000000000000e+00 -3.573659878163e-16 0.000000000000e+00 0.000000000000e+00 0.000000000000e+00 0.000000000000e+00)
)

F0               : (-6.194440034697e-14 6.282550834919e-01 3.186222632273e-21)
tau0             : (2.210730196163e-21 8.749826831169e-21 -3.243062573723e-16)

Time = 0.530577            6 6
(
(0.000000000000e+00 9.781409306883e-13 0.000000000000e+00 0.000000000000e+00 0.000000000000e+00 0.000000000000e+00)
(0.000000000000e+00 3.137879160897e+00 0.000000000000e+00 0.000000000000e+00 0.000000000000e+00 0.000000000000e+00)
(0.000000000000e+00 3.063564580010e-21 0.000000000000e+00 0.000000000000e+00 0.000000000000e+00 0.000000000000e+00)
(0.000000000000e+00 -9.635763769559e-23 0.000000000000e+00 0.000000000000e+00 0.000000000000e+00 0.000000000000e+00)
(0.000000000000e+00 3.443533907540e-21 0.000000000000e+00 0.000000000000e+00 0.000000000000e+00 0.000000000000e+00)
(0.000000000000e+00 -3.303843227483e-16 0.000000000000e+00 0.000000000000e+00 0.000000000000e+00 0.000000000000e+00)
)

F0               : (-2.133874674182e-13 6.282543658878e-01 -8.182143458670e-21)
tau0             : (-7.859160160611e-21 7.624447778968e-21 -3.276698252059e-16)

Time = 0.624462            6 6
(
(0.000000000000e+00 -6.440039835554e-13 0.000000000000e+00 0.000000000000e+00 0.000000000000e+00 0.000000000000e+00)
(0.000000000000e+00 3.137879156861e+00 0.000000000000e+00 0.000000000000e+00 0.000000000000e+00 0.000000000000e+00)
(0.000000000000e+00 1.336647099939e-20 0.000000000000e+00 0.000000000000e+00 0.000000000000e+00 0.000000000000e+00)
(0.000000000000e+00 -9.841003338792e-21 0.000000000000e+00 0.000000000000e+00 0.000000000000e+00 0.000000000000e+00)
(0.000000000000e+00 1.130859239747e-20 0.000000000000e+00 0.000000000000e+00 0.000000000000e+00 0.000000000000e+00)
(0.000000000000e+00 -3.496165558008e-16 0.000000000000e+00 0.000000000000e+00 0.000000000000e+00 0.000000000000e+00)
)

F0               : (-4.009087441366e-13 6.282518785596e-01 1.570858728907e-20)
tau0             : (-1.234702596583e-20 2.647919823887e-20 -3.473104016703e-16)

Time = 0.699569            6 6
(
(0.000000000000e+00 9.029585103221e-13 0.000000000000e+00 0.000000000000e+00 0.000000000000e+00 0.000000000000e+00)
(0.000000000000e+00 3.137879158950e+00 0.000000000000e+00 0.000000000000e+00 0.000000000000e+00 0.000000000000e+00)
(0.000000000000e+00 -8.309251472986e-21 0.000000000000e+00 0.000000000000e+00 0.000000000000e+00 0.000000000000e+00)
(0.000000000000e+00 -7.726471183231e-21 0.000000000000e+00 0.000000000000e+00 0.000000000000e+00 0.000000000000e+00)
(0.000000000000e+00 2.497395192551e-21 0.000000000000e+00 0.000000000000e+00 0.000000000000e+00 0.000000000000e+00)
(0.000000000000e+00 -3.389947239995e-16 0.000000000000e+00 0.000000000000e+00 0.000000000000e+00 0.000000000000e+00)
)

F0               : (-7.730580769711e-13 6.282450611573e-01 1.491876724807e-20)
tau0             : (-1.237025111655e-20 1.722645414701e-20 -3.291464153912e-16)

Time = 0.759656            6 6
(
(0.000000000000e+00 -1.039310393796e-12 0.000000000000e+00 0.000000000000e+00 0.000000000000e+00 0.000000000000e+00)
(0.000000000000e+00 3.137879160401e+00 0.000000000000e+00 0.000000000000e+00 0.000000000000e+00 0.000000000000e+00)
(0.000000000000e+00 1.620673973935e-20 0.000000000000e+00 0.000000000000e+00 0.000000000000e+00 0.000000000000e+00)
(0.000000000000e+00 -1.294766141080e-20 0.000000000000e+00 0.000000000000e+00 0.000000000000e+00 0.000000000000e+00)
(0.000000000000e+00 1.872669253957e-20 0.000000000000e+00 0.000000000000e+00 0.000000000000e+00 0.000000000000e+00)
(0.000000000000e+00 -3.542057882079e-16 0.000000000000e+00 0.000000000000e+00 0.000000000000e+00 0.000000000000e+00)
)

F0               : (-4.258467222514e-13 6.282381473106e-01 3.071415046828e-21)
tau0             : (-7.848033163359e-24 5.893338414611e-21 -3.409316083028e-16)

Time = 0.819742            6 6
(
(0.000000000000e+00 2.298759429267e-12 0.000000000000e+00 0.000000000000e+00 0.000000000000e+00 0.000000000000e+00)
(0.000000000000e+00 3.137879165483e+00 0.000000000000e+00 0.000000000000e+00 0.000000000000e+00 0.000000000000e+00)
(0.000000000000e+00 -5.987335676514e-21 0.000000000000e+00 0.000000000000e+00 0.000000000000e+00 0.000000000000e+00)
(0.000000000000e+00 -8.997829721204e-21 0.000000000000e+00 0.000000000000e+00 0.000000000000e+00 0.000000000000e+00)
(0.000000000000e+00 1.893471336274e-20 0.000000000000e+00 0.000000000000e+00 0.000000000000e+00 0.000000000000e+00)
(0.000000000000e+00 -3.244509938804e-16 0.000000000000e+00 0.000000000000e+00 0.000000000000e+00 0.000000000000e+00)
)

F0               : (6.987669449142e-14 6.282401243343e-01 -7.852211888252e-21)
tau0             : (-1.050368240984e-20 3.128550428533e-20 -3.265525887485e-16)

Time = 0.879828            6 6
(
(0.000000000000e+00 -7.671136541785e-13 0.000000000000e+00 0.000000000000e+00 0.000000000000e+00 0.000000000000e+00)
(0.000000000000e+00 3.137879163269e+00 0.000000000000e+00 0.000000000000e+00 0.000000000000e+00 0.000000000000e+00)
(0.000000000000e+00 1.084351016839e-20 0.000000000000e+00 0.000000000000e+00 0.000000000000e+00 0.000000000000e+00)
(0.000000000000e+00 3.867186762870e-21 0.000000000000e+00 0.000000000000e+00 0.000000000000e+00 0.000000000000e+00)
(0.000000000000e+00 1.774660503834e-20 0.000000000000e+00 0.000000000000e+00 0.000000000000e+00 0.000000000000e+00)
(0.000000000000e+00 -3.491488697286e-16 0.000000000000e+00 0.000000000000e+00 0.000000000000e+00 0.000000000000e+00)
)

F0               : (-5.798167935361e-13 6.282415146315e-01 3.989057380479e-23)
tau0             : (-2.425991851877e-20 -5.485485468105e-22 -3.123789746838e-16)

Time = 0.939914            6 6
(
(0.000000000000e+00 1.903935247099e-12 0.000000000000e+00 0.000000000000e+00 0.000000000000e+00 0.000000000000e+00)
(0.000000000000e+00 3.137879175156e+00 0.000000000000e+00 0.000000000000e+00 0.000000000000e+00 0.000000000000e+00)
(0.000000000000e+00 7.700317575921e-21 0.000000000000e+00 0.000000000000e+00 0.000000000000e+00 0.000000000000e+00)
(0.000000000000e+00 -1.831798802460e-20 0.000000000000e+00 0.000000000000e+00 0.000000000000e+00 0.000000000000e+00)
(0.000000000000e+00 2.428326709893e-20 0.000000000000e+00 0.000000000000e+00 0.000000000000e+00 0.000000000000e+00)
(0.000000000000e+00 -3.325078620662e-16 0.000000000000e+00 0.000000000000e+00 0.000000000000e+00 0.000000000000e+00)
)

F0               : (-4.583124244700e-13 6.282426675178e-01 1.846041690178e-21)
tau0             : (-2.334269876585e-20 9.343523534876e-21 -3.231506926740e-16)

Time = 1                   6 6
(
(0.000000000000e+00 -7.116320957144e-12 0.000000000000e+00 0.000000000000e+00 0.000000000000e+00 0.000000000000e+00)
(0.000000000000e+00 3.137879162044e+00 0.000000000000e+00 0.000000000000e+00 0.000000000000e+00 0.000000000000e+00)
(0.000000000000e+00 -8.480870183961e-21 0.000000000000e+00 0.000000000000e+00 0.000000000000e+00 0.000000000000e+00)
(0.000000000000e+00 -8.971981175384e-21 0.000000000000e+00 0.000000000000e+00 0.000000000000e+00 0.000000000000e+00)
(0.000000000000e+00 2.260341324956e-20 0.000000000000e+00 0.000000000000e+00 0.000000000000e+00 0.000000000000e+00)
(0.000000000000e+00 -3.080542817967e-16 0.000000000000e+00 0.000000000000e+00 0.000000000000e+00 0.000000000000e+00)
)

F0               : (1.356437477531e-13 6.282437065329e-01 -7.618371881645e-21)
tau0             : (-2.829060686362e-20 4.067200872499e-20 -3.342163310970e-16)

Time = 1.04545             6 6
(
(0.000000000000e+00 2.464830896205e-12 0.000000000000e+00 0.000000000000e+00 0.000000000000e+00 0.000000000000e+00)
(0.000000000000e+00 3.137879147610e+00 0.000000000000e+00 0.000000000000e+00 0.000000000000e+00 0.000000000000e+00)
(0.000000000000e+00 -1.158207858530e-20 0.000000000000e+00 0.000000000000e+00 0.000000000000e+00 0.000000000000e+00)
(0.000000000000e+00 -8.459519439210e-21 0.000000000000e+00 0.000000000000e+00 0.000000000000e+00 0.000000000000e+00)
(0.000000000000e+00 3.884447266130e-20 0.000000000000e+00 0.000000000000e+00 0.000000000000e+00 0.000000000000e+00)
(0.000000000000e+00 -3.228800271459e-16 0.000000000000e+00 0.000000000000e+00 0.000000000000e+00 0.000000000000e+00)
)

F0               : (6.122857754663e-13 6.282336849691e-01 5.729850355899e-22)
tau0             : (-4.619374835692e-21 3.493232056472e-20 -3.164464268965e-16)

Time = 1.08884             6 6
(
(0.000000000000e+00 1.484507791530e-12 0.000000000000e+00 0.000000000000e+00 0.000000000000e+00 0.000000000000e+00)
(0.000000000000e+00 3.137879144586e+00 0.000000000000e+00 0.000000000000e+00 0.000000000000e+00 0.000000000000e+00)
(0.000000000000e+00 2.853936811058e-21 0.000000000000e+00 0.000000000000e+00 0.000000000000e+00 0.000000000000e+00)
(0.000000000000e+00 -2.486184914443e-20 0.000000000000e+00 0.000000000000e+00 0.000000000000e+00 0.000000000000e+00)
(0.000000000000e+00 1.147259889174e-20 0.000000000000e+00 0.000000000000e+00 0.000000000000e+00 0.000000000000e+00)
(0.000000000000e+00 -3.359065958436e-16 0.000000000000e+00 0.000000000000e+00 0.000000000000e+00 0.000000000000e+00)
)

F0               : (6.732209733261e-14 6.282372651141e-01 1.317201308401e-20)
tau0             : (-1.229108218901e-20 2.283640042766e-20 -3.361086027011e-16)

Time = 1.13026             6 6
(
(0.000000000000e+00 3.627975759254e-12 0.000000000000e+00 0.000000000000e+00 0.000000000000e+00 0.000000000000e+00)
(0.000000000000e+00 3.137879139607e+00 0.000000000000e+00 0.000000000000e+00 0.000000000000e+00 0.000000000000e+00)
(0.000000000000e+00 -2.070861747490e-21 0.000000000000e+00 0.000000000000e+00 0.000000000000e+00 0.000000000000e+00)
(0.000000000000e+00 -1.235436125960e-20 0.000000000000e+00 0.000000000000e+00 0.000000000000e+00 0.000000000000e+00)
(0.000000000000e+00 3.735658658898e-20 0.000000000000e+00 0.000000000000e+00 0.000000000000e+00 0.000000000000e+00)
(0.000000000000e+00 -3.361281601891e-16 0.000000000000e+00 0.000000000000e+00 0.000000000000e+00 0.000000000000e+00)
)

F0               : (4.195206736255e-13 6.282390500205e-01 2.963861317233e-21)
tau0             : (-2.621957284530e-20 3.172793354774e-20 -3.216827845764e-16)

Time = 1.16979             6 6
(
(0.000000000000e+00 -2.124185565388e-12 0.000000000000e+00 0.000000000000e+00 0.000000000000e+00 0.000000000000e+00)
(0.000000000000e+00 3.137879133551e+00 0.000000000000e+00 0.000000000000e+00 0.000000000000e+00 0.000000000000e+00)
(0.000000000000e+00 -2.896856658984e-21 0.000000000000e+00 0.000000000000e+00 0.000000000000e+00 0.000000000000e+00)
(0.000000000000e+00 -3.948839521803e-21 0.000000000000e+00 0.000000000000e+00 0.000000000000e+00 0.000000000000e+00)
(0.000000000000e+00 3.140000754379e-20 0.000000000000e+00 0.000000000000e+00 0.000000000000e+00 0.000000000000e+00)
(0.000000000000e+00 -3.547393738622e-16 0.000000000000e+00 0.000000000000e+00 0.000000000000e+00 0.000000000000e+00)
)

F0               : (2.443374577102e-12 6.282400279888e-01 8.584641975055e-22)
tau0             : (-4.842728867979e-21 1.796516661121e-20 -3.176847890654e-16)

Time = 1.20933             6 6
(
(0.000000000000e+00 6.746297581404e-12 0.000000000000e+00 0.000000000000e+00 0.000000000000e+00 0.000000000000e+00)
(0.000000000000e+00 3.137879130202e+00 0.000000000000e+00 0.000000000000e+00 0.000000000000e+00 0.000000000000e+00)
(0.000000000000e+00 -1.463182172655e-21 0.000000000000e+00 0.000000000000e+00 0.000000000000e+00 0.000000000000e+00)
(0.000000000000e+00 -1.352487295895e-20 0.000000000000e+00 0.000000000000e+00 0.000000000000e+00 0.000000000000e+00)
(0.000000000000e+00 3.574690674193e-20 0.000000000000e+00 0.000000000000e+00 0.000000000000e+00 0.000000000000e+00)
(0.000000000000e+00 -3.417774878829e-16 0.000000000000e+00 0.000000000000e+00 0.000000000000e+00 0.000000000000e+00)
)

F0               : (-6.621370118864e-13 6.282427380035e-01 -2.551259519109e-21)
tau0             : (-1.975549079577e-20 3.256466456373e-20 -3.329119003582e-16)

Time = 1.24698             6 6
(
(0.000000000000e+00 8.234681380146e-12 0.000000000000e+00 0.000000000000e+00 0.000000000000e+00 0.000000000000e+00)
(0.000000000000e+00 3.137879126215e+00 0.000000000000e+00 0.000000000000e+00 0.000000000000e+00 0.000000000000e+00)
(0.000000000000e+00 6.747641802342e-21 0.000000000000e+00 0.000000000000e+00 0.000000000000e+00 0.000000000000e+00)
(0.000000000000e+00 -2.668399521892e-20 0.000000000000e+00 0.000000000000e+00 0.000000000000e+00 0.000000000000e+00)
(0.000000000000e+00 1.176490283831e-20 0.000000000000e+00 0.000000000000e+00 0.000000000000e+00 0.000000000000e+00)
(0.000000000000e+00 -3.361480861460e-16 0.000000000000e+00 0.000000000000e+00 0.000000000000e+00 0.000000000000e+00)
)

F0               : (-8.977546082835e-13 6.282420848924e-01 7.405682588399e-21)
tau0             : (-1.699171507315e-21 3.718612632945e-20 -3.239426684797e-16)

Time = 1.28284             6 6
(
(0.000000000000e+00 5.030919418714e-12 0.000000000000e+00 0.000000000000e+00 0.000000000000e+00 0.000000000000e+00)
(0.000000000000e+00 3.137879121057e+00 0.000000000000e+00 0.000000000000e+00 0.000000000000e+00 0.000000000000e+00)
(0.000000000000e+00 7.958554758030e-22 0.000000000000e+00 0.000000000000e+00 0.000000000000e+00 0.000000000000e+00)
(0.000000000000e+00 1.040324863676e-21 0.000000000000e+00 0.000000000000e+00 0.000000000000e+00 0.000000000000e+00)
(0.000000000000e+00 1.968679890609e-20 0.000000000000e+00 0.000000000000e+00 0.000000000000e+00 0.000000000000e+00)
(0.000000000000e+00 -3.234266729709e-16 0.000000000000e+00 0.000000000000e+00 0.000000000000e+00 0.000000000000e+00)
)

F0               : (-1.283320238271e-12 6.282419036449e-01 1.582025102233e-21)
tau0             : (5.724562221033e-22 1.107837956795e-20 -3.314677091831e-16)

Time = 1.31869             6 6
(
(0.000000000000e+00 5.380286227931e-12 0.000000000000e+00 0.000000000000e+00 0.000000000000e+00 0.000000000000e+00)
(0.000000000000e+00 3.137879116495e+00 0.000000000000e+00 0.000000000000e+00 0.000000000000e+00 0.000000000000e+00)
(0.000000000000e+00 5.916829425948e-21 0.000000000000e+00 0.000000000000e+00 0.000000000000e+00 0.000000000000e+00)
(0.000000000000e+00 -1.605576887478e-20 0.000000000000e+00 0.000000000000e+00 0.000000000000e+00 0.000000000000e+00)
(0.000000000000e+00 2.066632958997e-20 0.000000000000e+00 0.000000000000e+00 0.000000000000e+00 0.000000000000e+00)
(0.000000000000e+00 -3.185963809536e-16 0.000000000000e+00 0.000000000000e+00 0.000000000000e+00 0.000000000000e+00)
)

F0               : (-7.330941409478e-15 6.282442258916e-01 1.366765669233e-21)
tau0             : (-7.028188927796e-23 8.342689269733e-21 -3.447055635993e-16)

Time = 1.35276             6 6
(
(0.000000000000e+00 5.213502034509e-12 0.000000000000e+00 0.000000000000e+00 0.000000000000e+00 0.000000000000e+00)
(0.000000000000e+00 3.137879111544e+00 0.000000000000e+00 0.000000000000e+00 0.000000000000e+00 0.000000000000e+00)
(0.000000000000e+00 1.397355562595e-21 0.000000000000e+00 0.000000000000e+00 0.000000000000e+00 0.000000000000e+00)
(0.000000000000e+00 -1.954460637151e-22 0.000000000000e+00 0.000000000000e+00 0.000000000000e+00 0.000000000000e+00)
(0.000000000000e+00 5.781529992260e-21 0.000000000000e+00 0.000000000000e+00 0.000000000000e+00 0.000000000000e+00)
(0.000000000000e+00 -3.182539548242e-16 0.000000000000e+00 0.000000000000e+00 0.000000000000e+00 0.000000000000e+00)
)

F0               : (-1.043376431260e-12 6.282429833995e-01 -2.675238773496e-21)
tau0             : (-2.194887112000e-20 2.678926909328e-20 -3.270919369776e-16)

Time = 1.38682             6 6
(
(0.000000000000e+00 3.126051242577e-12 0.000000000000e+00 0.000000000000e+00 0.000000000000e+00 0.000000000000e+00)
(0.000000000000e+00 3.137879108605e+00 0.000000000000e+00 0.000000000000e+00 0.000000000000e+00 0.000000000000e+00)
(0.000000000000e+00 -4.853869510200e-21 0.000000000000e+00 0.000000000000e+00 0.000000000000e+00 0.000000000000e+00)